+ 0.1 0 2 tcp 40 ------- 1 0.0 4.0 0 0
- 0.1 0 2 tcp 40 ------- 1 0.0 4.0 0 0
r 0.102032 0 2 tcp 40 ------- 1 0.0 4.0 0 0
+ 0.102032 2 3 tcp 40 ------- 1 0.0 4.0 0 0
- 0.102032 2 3 tcp 40 ------- 1 0.0 4.0 0 0
r 0.122245 2 3 tcp 40 ------- 1 0.0 4.0 0 0
+ 0.122245 3 4 tcp 40 ------- 1 0.0 4.0 0 0
- 0.122245 3 4 tcp 40 ------- 1 0.0 4.0 0 0
r 0.126277 3 4 tcp 40 ------- 1 0.0 4.0 0 0
+ 0.126277 4 3 ack 40 ------- 1 4.0 0.0 0 1
- 0.126277 4 3 ack 40 ------- 1 4.0 0.0 0 1
r 0.130309 4 3 ack 40 ------- 1 4.0 0.0 0 1
+ 0.130309 3 2 ack 40 ------- 1 4.0 0.0 0 1
- 0.130309 3 2 ack 40 ------- 1 4.0 0.0 0 1
r 0.150523 3 2 ack 40 ------- 1 4.0 0.0 0 1
+ 0.150523 2 0 ack 40 ------- 1 4.0 0.0 0 1
- 0.150523 2 0 ack 40 ------- 1 4.0 0.0 0 1
r 0.152555 2 0 ack 40 ------- 1 4.0 0.0 0 1
+ 0.152555 0 2 tcp 1040 ------- 1 0.0 4.0 1 2
- 0.152555 0 2 tcp 1040 ------- 1 0.0 4.0 1 2
+ 0.152555 0 2 tcp 1040 ------- 1 0.0 4.0 2 3
- 0.153387 0 2 tcp 1040 ------- 1 0.0 4.0 2 3
r 0.155387 0 2 tcp 1040 ------- 1 0.0 4.0 1 2
+ 0.155387 2 3 tcp 1040 ------- 1 0.0 4.0 1 2
- 0.155387 2 3 tcp 1040 ------- 1 0.0 4.0 1 2
r 0.156219 0 2 tcp 1040 ------- 1 0.0 4.0 2 3
+ 0.156219 2 3 tcp 1040 ------- 1 0.0 4.0 2 3
- 0.160933 2 3 tcp 1040 ------- 1 0.0 4.0 2 3
r 0.180933 2 3 tcp 1040 ------- 1 0.0 4.0 1 2
+ 0.180933 3 4 tcp 1040 ------- 1 0.0 4.0 1 2
- 0.180933 3 4 tcp 1040 ------- 1 0.0 4.0 1 2
r 0.185765 3 4 tcp 1040 ------- 1 0.0 4.0 1 2
+ 0.185765 4 3 ack 40 ------- 1 4.0 0.0 1 4
- 0.185765 4 3 ack 40 ------- 1 4.0 0.0 1 4
r 0.18648 2 3 tcp 1040 ------- 1 0.0 4.0 2 3
+ 0.18648 3 4 tcp 1040 ------- 1 0.0 4.0 2 3
- 0.18648 3 4 tcp 1040 ------- 1 0.0 4.0 2 3
r 0.189797 4 3 ack 40 ------- 1 4.0 0.0 1 4
+ 0.189797 3 2 ack 40 ------- 1 4.0 0.0 1 4
- 0.189797 3 2 ack 40 ------- 1 4.0 0.0 1 4
r 0.191312 3 4 tcp 1040 ------- 1 0.0 4.0 2 3
+ 0.191312 4 3 ack 40 ------- 1 4.0 0.0 2 5
- 0.191312 4 3 ack 40 ------- 1 4.0 0.0 2 5
r 0.195344 4 3 ack 40 ------- 1 4.0 0.0 2 5
+ 0.195344 3 2 ack 40 ------- 1 4.0 0.0 2 5
- 0.195344 3 2 ack 40 ------- 1 4.0 0.0 2 5
r 0.210011 3 2 ack 40 ------- 1 4.0 0.0 1 4
+ 0.210011 2 0 ack 40 ------- 1 4.0 0.0 1 4
- 0.210011 2 0 ack 40 ------- 1 4.0 0.0 1 4
r 0.212043 2 0 ack 40 ------- 1 4.0 0.0 1 4
+ 0.212043 0 2 tcp 1040 ------- 1 0.0 4.0 3 6
- 0.212043 0 2 tcp 1040 ------- 1 0.0 4.0 3 6
+ 0.212043 0 2 tcp 1040 ------- 1 0.0 4.0 4 7
- 0.212875 0 2 tcp 1040 ------- 1 0.0 4.0 4 7
r 0.214875 0 2 tcp 1040 ------- 1 0.0 4.0 3 6
+ 0.214875 2 3 tcp 1040 ------- 1 0.0 4.0 3 6
- 0.214875 2 3 tcp 1040 ------- 1 0.0 4.0 3 6
r 0.215557 3 2 ack 40 ------- 1 4.0 0.0 2 5
+ 0.215557 2 0 ack 40 ------- 1 4.0 0.0 2 5
- 0.215557 2 0 ack 40 ------- 1 4.0 0.0 2 5
r 0.215707 0 2 tcp 1040 ------- 1 0.0 4.0 4 7
+ 0.215707 2 3 tcp 1040 ------- 1 0.0 4.0 4 7
r 0.217589 2 0 ack 40 ------- 1 4.0 0.0 2 5
+ 0.217589 0 2 tcp 1040 ------- 1 0.0 4.0 5 8
- 0.217589 0 2 tcp 1040 ------- 1 0.0 4.0 5 8
+ 0.217589 0 2 tcp 1040 ------- 1 0.0 4.0 6 9
- 0.218421 0 2 tcp 1040 ------- 1 0.0 4.0 6 9
- 0.220421 2 3 tcp 1040 ------- 1 0.0 4.0 4 7
r 0.220421 0 2 tcp 1040 ------- 1 0.0 4.0 5 8
+ 0.220421 2 3 tcp 1040 ------- 1 0.0 4.0 5 8
r 0.221253 0 2 tcp 1040 ------- 1 0.0 4.0 6 9
+ 0.221253 2 3 tcp 1040 ------- 1 0.0 4.0 6 9
- 0.225968 2 3 tcp 1040 ------- 1 0.0 4.0 5 8
- 0.231515 2 3 tcp 1040 ------- 1 0.0 4.0 6 9
r 0.240421 2 3 tcp 1040 ------- 1 0.0 4.0 3 6
+ 0.240421 3 4 tcp 1040 ------- 1 0.0 4.0 3 6
- 0.240421 3 4 tcp 1040 ------- 1 0.0 4.0 3 6
r 0.245253 3 4 tcp 1040 ------- 1 0.0 4.0 3 6
+ 0.245253 4 3 ack 40 ------- 1 4.0 0.0 3 10
- 0.245253 4 3 ack 40 ------- 1 4.0 0.0 3 10
r 0.245968 2 3 tcp 1040 ------- 1 0.0 4.0 4 7
+ 0.245968 3 4 tcp 1040 ------- 1 0.0 4.0 4 7
- 0.245968 3 4 tcp 1040 ------- 1 0.0 4.0 4 7
r 0.249285 4 3 ack 40 ------- 1 4.0 0.0 3 10
+ 0.249285 3 2 ack 40 ------- 1 4.0 0.0 3 10
- 0.249285 3 2 ack 40 ------- 1 4.0 0.0 3 10
r 0.2508 3 4 tcp 1040 ------- 1 0.0 4.0 4 7
+ 0.2508 4 3 ack 40 ------- 1 4.0 0.0 4 11
- 0.2508 4 3 ack 40 ------- 1 4.0 0.0 4 11
r 0.251515 2 3 tcp 1040 ------- 1 0.0 4.0 5 8
+ 0.251515 3 4 tcp 1040 ------- 1 0.0 4.0 5 8
- 0.251515 3 4 tcp 1040 ------- 1 0.0 4.0 5 8
r 0.254832 4 3 ack 40 ------- 1 4.0 0.0 4 11
+ 0.254832 3 2 ack 40 ------- 1 4.0 0.0 4 11
- 0.254832 3 2 ack 40 ------- 1 4.0 0.0 4 11
r 0.256347 3 4 tcp 1040 ------- 1 0.0 4.0 5 8
+ 0.256347 4 3 ack 40 ------- 1 4.0 0.0 5 12
- 0.256347 4 3 ack 40 ------- 1 4.0 0.0 5 12
r 0.257061 2 3 tcp 1040 ------- 1 0.0 4.0 6 9
+ 0.257061 3 4 tcp 1040 ------- 1 0.0 4.0 6 9
- 0.257061 3 4 tcp 1040 ------- 1 0.0 4.0 6 9
r 0.260379 4 3 ack 40 ------- 1 4.0 0.0 5 12
+ 0.260379 3 2 ack 40 ------- 1 4.0 0.0 5 12
- 0.260379 3 2 ack 40 ------- 1 4.0 0.0 5 12
r 0.261893 3 4 tcp 1040 ------- 1 0.0 4.0 6 9
+ 0.261893 4 3 ack 40 ------- 1 4.0 0.0 6 13
- 0.261893 4 3 ack 40 ------- 1 4.0 0.0 6 13
r 0.265925 4 3 ack 40 ------- 1 4.0 0.0 6 13
+ 0.265925 3 2 ack 40 ------- 1 4.0 0.0 6 13
- 0.265925 3 2 ack 40 ------- 1 4.0 0.0 6 13
r 0.269499 3 2 ack 40 ------- 1 4.0 0.0 3 10
+ 0.269499 2 0 ack 40 ------- 1 4.0 0.0 3 10
- 0.269499 2 0 ack 40 ------- 1 4.0 0.0 3 10
r 0.271531 2 0 ack 40 ------- 1 4.0 0.0 3 10
+ 0.271531 0 2 tcp 1040 ------- 1 0.0 4.0 7 14
- 0.271531 0 2 tcp 1040 ------- 1 0.0 4.0 7 14
+ 0.271531 0 2 tcp 1040 ------- 1 0.0 4.0 8 15
- 0.272363 0 2 tcp 1040 ------- 1 0.0 4.0 8 15
r 0.274363 0 2 tcp 1040 ------- 1 0.0 4.0 7 14
+ 0.274363 2 3 tcp 1040 ------- 1 0.0 4.0 7 14
- 0.274363 2 3 tcp 1040 ------- 1 0.0 4.0 7 14
r 0.275045 3 2 ack 40 ------- 1 4.0 0.0 4 11
+ 0.275045 2 0 ack 40 ------- 1 4.0 0.0 4 11
- 0.275045 2 0 ack 40 ------- 1 4.0 0.0 4 11
r 0.275195 0 2 tcp 1040 ------- 1 0.0 4.0 8 15
+ 0.275195 2 3 tcp 1040 ------- 1 0.0 4.0 8 15
r 0.277077 2 0 ack 40 ------- 1 4.0 0.0 4 11
+ 0.277077 0 2 tcp 1040 ------- 1 0.0 4.0 9 16
- 0.277077 0 2 tcp 1040 ------- 1 0.0 4.0 9 16
+ 0.277077 0 2 tcp 1040 ------- 1 0.0 4.0 10 17
- 0.277909 0 2 tcp 1040 ------- 1 0.0 4.0 10 17
- 0.279909 2 3 tcp 1040 ------- 1 0.0 4.0 8 15
r 0.279909 0 2 tcp 1040 ------- 1 0.0 4.0 9 16
+ 0.279909 2 3 tcp 1040 ------- 1 0.0 4.0 9 16
r 0.280592 3 2 ack 40 ------- 1 4.0 0.0 5 12
+ 0.280592 2 0 ack 40 ------- 1 4.0 0.0 5 12
- 0.280592 2 0 ack 40 ------- 1 4.0 0.0 5 12
r 0.280741 0 2 tcp 1040 ------- 1 0.0 4.0 10 17
+ 0.280741 2 3 tcp 1040 ------- 1 0.0 4.0 10 17
r 0.282624 2 0 ack 40 ------- 1 4.0 0.0 5 12
+ 0.282624 0 2 tcp 1040 ------- 1 0.0 4.0 11 18
- 0.282624 0 2 tcp 1040 ------- 1 0.0 4.0 11 18
+ 0.282624 0 2 tcp 1040 ------- 1 0.0 4.0 12 19
- 0.283456 0 2 tcp 1040 ------- 1 0.0 4.0 12 19
- 0.285456 2 3 tcp 1040 ------- 1 0.0 4.0 9 16
r 0.285456 0 2 tcp 1040 ------- 1 0.0 4.0 11 18
+ 0.285456 2 3 tcp 1040 ------- 1 0.0 4.0 11 18
r 0.286139 3 2 ack 40 ------- 1 4.0 0.0 6 13
+ 0.286139 2 0 ack 40 ------- 1 4.0 0.0 6 13
- 0.286139 2 0 ack 40 ------- 1 4.0 0.0 6 13
r 0.286288 0 2 tcp 1040 ------- 1 0.0 4.0 12 19
+ 0.286288 2 3 tcp 1040 ------- 1 0.0 4.0 12 19
r 0.288171 2 0 ack 40 ------- 1 4.0 0.0 6 13
+ 0.288171 0 2 tcp 1040 ------- 1 0.0 4.0 13 20
- 0.288171 0 2 tcp 1040 ------- 1 0.0 4.0 13 20
+ 0.288171 0 2 tcp 1040 ------- 1 0.0 4.0 14 21
- 0.289003 0 2 tcp 1040 ------- 1 0.0 4.0 14 21
- 0.291003 2 3 tcp 1040 ------- 1 0.0 4.0 10 17
r 0.291003 0 2 tcp 1040 ------- 1 0.0 4.0 13 20
+ 0.291003 2 3 tcp 1040 ------- 1 0.0 4.0 13 20
r 0.291835 0 2 tcp 1040 ------- 1 0.0 4.0 14 21
+ 0.291835 2 3 tcp 1040 ------- 1 0.0 4.0 14 21
- 0.296549 2 3 tcp 1040 ------- 1 0.0 4.0 11 18
r 0.299909 2 3 tcp 1040 ------- 1 0.0 4.0 7 14
+ 0.299909 3 4 tcp 1040 ------- 1 0.0 4.0 7 14
- 0.299909 3 4 tcp 1040 ------- 1 0.0 4.0 7 14
+ 0.3 1 2 cbr 500 ------- 2 1.0 5.0 0 22
- 0.3 1 2 cbr 500 ------- 2 1.0 5.0 0 22
- 0.302096 2 3 tcp 1040 ------- 1 0.0 4.0 12 19
r 0.3034 1 2 cbr 500 ------- 2 1.0 5.0 0 22
+ 0.3034 2 3 cbr 500 ------- 2 1.0 5.0 0 22
+ 0.304 1 2 cbr 500 ------- 2 1.0 5.0 1 23
- 0.304 1 2 cbr 500 ------- 2 1.0 5.0 1 23
r 0.304741 3 4 tcp 1040 ------- 1 0.0 4.0 7 14
+ 0.304741 4 3 ack 40 ------- 1 4.0 0.0 7 24
- 0.304741 4 3 ack 40 ------- 1 4.0 0.0 7 24
r 0.305456 2 3 tcp 1040 ------- 1 0.0 4.0 8 15
+ 0.305456 3 4 tcp 1040 ------- 1 0.0 4.0 8 15
- 0.305456 3 4 tcp 1040 ------- 1 0.0 4.0 8 15
r 0.3074 1 2 cbr 500 ------- 2 1.0 5.0 1 23
+ 0.3074 2 3 cbr 500 ------- 2 1.0 5.0 1 23
- 0.307643 2 3 tcp 1040 ------- 1 0.0 4.0 13 20
+ 0.308 1 2 cbr 500 ------- 2 1.0 5.0 2 25
- 0.308 1 2 cbr 500 ------- 2 1.0 5.0 2 25
r 0.308773 4 3 ack 40 ------- 1 4.0 0.0 7 24
+ 0.308773 3 2 ack 40 ------- 1 4.0 0.0 7 24
- 0.308773 3 2 ack 40 ------- 1 4.0 0.0 7 24
r 0.310288 3 4 tcp 1040 ------- 1 0.0 4.0 8 15
+ 0.310288 4 3 ack 40 ------- 1 4.0 0.0 8 26
- 0.310288 4 3 ack 40 ------- 1 4.0 0.0 8 26
r 0.311003 2 3 tcp 1040 ------- 1 0.0 4.0 9 16
+ 0.311003 3 4 tcp 1040 ------- 1 0.0 4.0 9 16
- 0.311003 3 4 tcp 1040 ------- 1 0.0 4.0 9 16
r 0.3114 1 2 cbr 500 ------- 2 1.0 5.0 2 25
+ 0.3114 2 3 cbr 500 ------- 2 1.0 5.0 2 25
+ 0.312 1 2 cbr 500 ------- 2 1.0 5.0 3 27
- 0.312 1 2 cbr 500 ------- 2 1.0 5.0 3 27
- 0.313189 2 3 tcp 1040 ------- 1 0.0 4.0 14 21
r 0.31432 4 3 ack 40 ------- 1 4.0 0.0 8 26
+ 0.31432 3 2 ack 40 ------- 1 4.0 0.0 8 26
- 0.31432 3 2 ack 40 ------- 1 4.0 0.0 8 26
r 0.3154 1 2 cbr 500 ------- 2 1.0 5.0 3 27
+ 0.3154 2 3 cbr 500 ------- 2 1.0 5.0 3 27
r 0.315835 3 4 tcp 1040 ------- 1 0.0 4.0 9 16
+ 0.315835 4 3 ack 40 ------- 1 4.0 0.0 9 28
- 0.315835 4 3 ack 40 ------- 1 4.0 0.0 9 28
+ 0.316 1 2 cbr 500 ------- 2 1.0 5.0 4 29
- 0.316 1 2 cbr 500 ------- 2 1.0 5.0 4 29
r 0.316549 2 3 tcp 1040 ------- 1 0.0 4.0 10 17
+ 0.316549 3 4 tcp 1040 ------- 1 0.0 4.0 10 17
- 0.316549 3 4 tcp 1040 ------- 1 0.0 4.0 10 17
- 0.318736 2 3 cbr 500 ------- 2 1.0 5.0 0 22
r 0.3194 1 2 cbr 500 ------- 2 1.0 5.0 4 29
+ 0.3194 2 3 cbr 500 ------- 2 1.0 5.0 4 29
r 0.319867 4 3 ack 40 ------- 1 4.0 0.0 9 28
+ 0.319867 3 2 ack 40 ------- 1 4.0 0.0 9 28
- 0.319867 3 2 ack 40 ------- 1 4.0 0.0 9 28
+ 0.32 1 2 cbr 500 ------- 2 1.0 5.0 5 30
- 0.32 1 2 cbr 500 ------- 2 1.0 5.0 5 30
r 0.321381 3 4 tcp 1040 ------- 1 0.0 4.0 10 17
+ 0.321381 4 3 ack 40 ------- 1 4.0 0.0 10 31
- 0.321381 4 3 ack 40 ------- 1 4.0 0.0 10 31
- 0.321403 2 3 cbr 500 ------- 2 1.0 5.0 1 23
r 0.322096 2 3 tcp 1040 ------- 1 0.0 4.0 11 18
+ 0.322096 3 4 tcp 1040 ------- 1 0.0 4.0 11 18
- 0.322096 3 4 tcp 1040 ------- 1 0.0 4.0 11 18
r 0.3234 1 2 cbr 500 ------- 2 1.0 5.0 5 30
+ 0.3234 2 3 cbr 500 ------- 2 1.0 5.0 5 30
+ 0.324 1 2 cbr 500 ------- 2 1.0 5.0 6 32
- 0.324 1 2 cbr 500 ------- 2 1.0 5.0 6 32
- 0.324069 2 3 cbr 500 ------- 2 1.0 5.0 2 25
r 0.325413 4 3 ack 40 ------- 1 4.0 0.0 10 31
+ 0.325413 3 2 ack 40 ------- 1 4.0 0.0 10 31
- 0.325413 3 2 ack 40 ------- 1 4.0 0.0 10 31
- 0.326736 2 3 cbr 500 ------- 2 1.0 5.0 3 27
r 0.326928 3 4 tcp 1040 ------- 1 0.0 4.0 11 18
+ 0.326928 4 3 ack 40 ------- 1 4.0 0.0 11 33
- 0.326928 4 3 ack 40 ------- 1 4.0 0.0 11 33
r 0.3274 1 2 cbr 500 ------- 2 1.0 5.0 6 32
+ 0.3274 2 3 cbr 500 ------- 2 1.0 5.0 6 32
r 0.327643 2 3 tcp 1040 ------- 1 0.0 4.0 12 19
+ 0.327643 3 4 tcp 1040 ------- 1 0.0 4.0 12 19
- 0.327643 3 4 tcp 1040 ------- 1 0.0 4.0 12 19
+ 0.328 1 2 cbr 500 ------- 2 1.0 5.0 7 34
- 0.328 1 2 cbr 500 ------- 2 1.0 5.0 7 34
r 0.328987 3 2 ack 40 ------- 1 4.0 0.0 7 24
+ 0.328987 2 0 ack 40 ------- 1 4.0 0.0 7 24
- 0.328987 2 0 ack 40 ------- 1 4.0 0.0 7 24
- 0.329403 2 3 cbr 500 ------- 2 1.0 5.0 4 29
r 0.33096 4 3 ack 40 ------- 1 4.0 0.0 11 33
+ 0.33096 3 2 ack 40 ------- 1 4.0 0.0 11 33
- 0.33096 3 2 ack 40 ------- 1 4.0 0.0 11 33
r 0.331019 2 0 ack 40 ------- 1 4.0 0.0 7 24
+ 0.331019 0 2 tcp 1040 ------- 1 0.0 4.0 15 35
- 0.331019 0 2 tcp 1040 ------- 1 0.0 4.0 15 35
+ 0.331019 0 2 tcp 1040 ------- 1 0.0 4.0 16 36
r 0.3314 1 2 cbr 500 ------- 2 1.0 5.0 7 34
+ 0.3314 2 3 cbr 500 ------- 2 1.0 5.0 7 34
- 0.331851 0 2 tcp 1040 ------- 1 0.0 4.0 16 36
+ 0.332 1 2 cbr 500 ------- 2 1.0 5.0 8 37
- 0.332 1 2 cbr 500 ------- 2 1.0 5.0 8 37
- 0.332069 2 3 cbr 500 ------- 2 1.0 5.0 5 30
r 0.332475 3 4 tcp 1040 ------- 1 0.0 4.0 12 19
+ 0.332475 4 3 ack 40 ------- 1 4.0 0.0 12 38
- 0.332475 4 3 ack 40 ------- 1 4.0 0.0 12 38
r 0.333189 2 3 tcp 1040 ------- 1 0.0 4.0 13 20
+ 0.333189 3 4 tcp 1040 ------- 1 0.0 4.0 13 20
- 0.333189 3 4 tcp 1040 ------- 1 0.0 4.0 13 20
r 0.333851 0 2 tcp 1040 ------- 1 0.0 4.0 15 35
+ 0.333851 2 3 tcp 1040 ------- 1 0.0 4.0 15 35
r 0.334533 3 2 ack 40 ------- 1 4.0 0.0 8 26
+ 0.334533 2 0 ack 40 ------- 1 4.0 0.0 8 26
- 0.334533 2 0 ack 40 ------- 1 4.0 0.0 8 26
r 0.334683 0 2 tcp 1040 ------- 1 0.0 4.0 16 36
+ 0.334683 2 3 tcp 1040 ------- 1 0.0 4.0 16 36
- 0.334736 2 3 cbr 500 ------- 2 1.0 5.0 6 32
r 0.3354 1 2 cbr 500 ------- 2 1.0 5.0 8 37
+ 0.3354 2 3 cbr 500 ------- 2 1.0 5.0 8 37
+ 0.336 1 2 cbr 500 ------- 2 1.0 5.0 9 39
- 0.336 1 2 cbr 500 ------- 2 1.0 5.0 9 39
r 0.336507 4 3 ack 40 ------- 1 4.0 0.0 12 38
+ 0.336507 3 2 ack 40 ------- 1 4.0 0.0 12 38
- 0.336507 3 2 ack 40 ------- 1 4.0 0.0 12 38
r 0.336565 2 0 ack 40 ------- 1 4.0 0.0 8 26
+ 0.336565 0 2 tcp 1040 ------- 1 0.0 4.0 17 40
- 0.336565 0 2 tcp 1040 ------- 1 0.0 4.0 17 40
+ 0.336565 0 2 tcp 1040 ------- 1 0.0 4.0 18 41
- 0.337397 0 2 tcp 1040 ------- 1 0.0 4.0 18 41
- 0.337403 2 3 cbr 500 ------- 2 1.0 5.0 7 34
r 0.338021 3 4 tcp 1040 ------- 1 0.0 4.0 13 20
+ 0.338021 4 3 ack 40 ------- 1 4.0 0.0 13 42
- 0.338021 4 3 ack 40 ------- 1 4.0 0.0 13 42
r 0.338736 2 3 tcp 1040 ------- 1 0.0 4.0 14 21
+ 0.338736 3 4 tcp 1040 ------- 1 0.0 4.0 14 21
- 0.338736 3 4 tcp 1040 ------- 1 0.0 4.0 14 21
r 0.339397 0 2 tcp 1040 ------- 1 0.0 4.0 17 40
+ 0.339397 2 3 tcp 1040 ------- 1 0.0 4.0 17 40
r 0.3394 1 2 cbr 500 ------- 2 1.0 5.0 9 39
+ 0.3394 2 3 cbr 500 ------- 2 1.0 5.0 9 39
+ 0.34 1 2 cbr 500 ------- 2 1.0 5.0 10 43
- 0.34 1 2 cbr 500 ------- 2 1.0 5.0 10 43
- 0.340069 2 3 tcp 1040 ------- 1 0.0 4.0 15 35
r 0.34008 3 2 ack 40 ------- 1 4.0 0.0 9 28
+ 0.34008 2 0 ack 40 ------- 1 4.0 0.0 9 28
- 0.34008 2 0 ack 40 ------- 1 4.0 0.0 9 28
r 0.340229 0 2 tcp 1040 ------- 1 0.0 4.0 18 41
+ 0.340229 2 3 tcp 1040 ------- 1 0.0 4.0 18 41
r 0.341403 2 3 cbr 500 ------- 2 1.0 5.0 0 22
+ 0.341403 3 5 cbr 500 ------- 2 1.0 5.0 0 22
- 0.341403 3 5 cbr 500 ------- 2 1.0 5.0 0 22
r 0.342053 4 3 ack 40 ------- 1 4.0 0.0 13 42
+ 0.342053 3 2 ack 40 ------- 1 4.0 0.0 13 42
- 0.342053 3 2 ack 40 ------- 1 4.0 0.0 13 42
r 0.342112 2 0 ack 40 ------- 1 4.0 0.0 9 28
+ 0.342112 0 2 tcp 1040 ------- 1 0.0 4.0 19 44
- 0.342112 0 2 tcp 1040 ------- 1 0.0 4.0 19 44
+ 0.342112 0 2 tcp 1040 ------- 1 0.0 4.0 20 45
- 0.342944 0 2 tcp 1040 ------- 1 0.0 4.0 20 45
r 0.3434 1 2 cbr 500 ------- 2 1.0 5.0 10 43
+ 0.3434 2 3 cbr 500 ------- 2 1.0 5.0 10 43
r 0.343568 3 4 tcp 1040 ------- 1 0.0 4.0 14 21
+ 0.343568 4 3 ack 40 ------- 1 4.0 0.0 14 46
- 0.343568 4 3 ack 40 ------- 1 4.0 0.0 14 46
+ 0.344 1 2 cbr 500 ------- 2 1.0 5.0 11 47
- 0.344 1 2 cbr 500 ------- 2 1.0 5.0 11 47
r 0.344069 2 3 cbr 500 ------- 2 1.0 5.0 1 23
+ 0.344069 3 5 cbr 500 ------- 2 1.0 5.0 1 23
- 0.344069 3 5 cbr 500 ------- 2 1.0 5.0 1 23
r 0.344944 0 2 tcp 1040 ------- 1 0.0 4.0 19 44
+ 0.344944 2 3 tcp 1040 ------- 1 0.0 4.0 19 44
- 0.345616 2 3 tcp 1040 ------- 1 0.0 4.0 16 36
r 0.345627 3 2 ack 40 ------- 1 4.0 0.0 10 31
+ 0.345627 2 0 ack 40 ------- 1 4.0 0.0 10 31
- 0.345627 2 0 ack 40 ------- 1 4.0 0.0 10 31
r 0.345776 0 2 tcp 1040 ------- 1 0.0 4.0 20 45
+ 0.345776 2 3 tcp 1040 ------- 1 0.0 4.0 20 45
r 0.346736 2 3 cbr 500 ------- 2 1.0 5.0 2 25
+ 0.346736 3 5 cbr 500 ------- 2 1.0 5.0 2 25
- 0.346736 3 5 cbr 500 ------- 2 1.0 5.0 2 25
r 0.346803 3 5 cbr 500 ------- 2 1.0 5.0 0 22
r 0.3474 1 2 cbr 500 ------- 2 1.0 5.0 11 47
+ 0.3474 2 3 cbr 500 ------- 2 1.0 5.0 11 47
r 0.3476 4 3 ack 40 ------- 1 4.0 0.0 14 46
+ 0.3476 3 2 ack 40 ------- 1 4.0 0.0 14 46
- 0.3476 3 2 ack 40 ------- 1 4.0 0.0 14 46
r 0.347659 2 0 ack 40 ------- 1 4.0 0.0 10 31
+ 0.347659 0 2 tcp 1040 ------- 1 0.0 4.0 21 48
- 0.347659 0 2 tcp 1040 ------- 1 0.0 4.0 21 48
+ 0.347659 0 2 tcp 1040 ------- 1 0.0 4.0 22 49
+ 0.348 1 2 cbr 500 ------- 2 1.0 5.0 12 50
- 0.348 1 2 cbr 500 ------- 2 1.0 5.0 12 50
- 0.348491 0 2 tcp 1040 ------- 1 0.0 4.0 22 49
r 0.349403 2 3 cbr 500 ------- 2 1.0 5.0 3 27
+ 0.349403 3 5 cbr 500 ------- 2 1.0 5.0 3 27
- 0.349403 3 5 cbr 500 ------- 2 1.0 5.0 3 27
r 0.349469 3 5 cbr 500 ------- 2 1.0 5.0 1 23
r 0.350491 0 2 tcp 1040 ------- 1 0.0 4.0 21 48
+ 0.350491 2 3 tcp 1040 ------- 1 0.0 4.0 21 48
- 0.351163 2 3 cbr 500 ------- 2 1.0 5.0 8 37
r 0.351173 3 2 ack 40 ------- 1 4.0 0.0 11 33
+ 0.351173 2 0 ack 40 ------- 1 4.0 0.0 11 33
- 0.351173 2 0 ack 40 ------- 1 4.0 0.0 11 33
r 0.351323 0 2 tcp 1040 ------- 1 0.0 4.0 22 49
+ 0.351323 2 3 tcp 1040 ------- 1 0.0 4.0 22 49
r 0.3514 1 2 cbr 500 ------- 2 1.0 5.0 12 50
+ 0.3514 2 3 cbr 500 ------- 2 1.0 5.0 12 50
+ 0.352 1 2 cbr 500 ------- 2 1.0 5.0 13 51
- 0.352 1 2 cbr 500 ------- 2 1.0 5.0 13 51
r 0.352069 2 3 cbr 500 ------- 2 1.0 5.0 4 29
+ 0.352069 3 5 cbr 500 ------- 2 1.0 5.0 4 29
- 0.352069 3 5 cbr 500 ------- 2 1.0 5.0 4 29
r 0.352136 3 5 cbr 500 ------- 2 1.0 5.0 2 25
r 0.353205 2 0 ack 40 ------- 1 4.0 0.0 11 33
+ 0.353205 0 2 tcp 1040 ------- 1 0.0 4.0 23 52
- 0.353205 0 2 tcp 1040 ------- 1 0.0 4.0 23 52
+ 0.353205 0 2 tcp 1040 ------- 1 0.0 4.0 24 53
- 0.353829 2 3 tcp 1040 ------- 1 0.0 4.0 17 40
- 0.354037 0 2 tcp 1040 ------- 1 0.0 4.0 24 53
r 0.354736 2 3 cbr 500 ------- 2 1.0 5.0 5 30
+ 0.354736 3 5 cbr 500 ------- 2 1.0 5.0 5 30
- 0.354736 3 5 cbr 500 ------- 2 1.0 5.0 5 30
r 0.354803 3 5 cbr 500 ------- 2 1.0 5.0 3 27
r 0.3554 1 2 cbr 500 ------- 2 1.0 5.0 13 51
+ 0.3554 2 3 cbr 500 ------- 2 1.0 5.0 13 51
+ 0.356 1 2 cbr 500 ------- 2 1.0 5.0 14 54
- 0.356 1 2 cbr 500 ------- 2 1.0 5.0 14 54
r 0.356037 0 2 tcp 1040 ------- 1 0.0 4.0 23 52
+ 0.356037 2 3 tcp 1040 ------- 1 0.0 4.0 23 52
r 0.35672 3 2 ack 40 ------- 1 4.0 0.0 12 38
+ 0.35672 2 0 ack 40 ------- 1 4.0 0.0 12 38
- 0.35672 2 0 ack 40 ------- 1 4.0 0.0 12 38
r 0.356869 0 2 tcp 1040 ------- 1 0.0 4.0 24 53
+ 0.356869 2 3 tcp 1040 ------- 1 0.0 4.0 24 53
r 0.357403 2 3 cbr 500 ------- 2 1.0 5.0 6 32
+ 0.357403 3 5 cbr 500 ------- 2 1.0 5.0 6 32
- 0.357403 3 5 cbr 500 ------- 2 1.0 5.0 6 32
r 0.357469 3 5 cbr 500 ------- 2 1.0 5.0 4 29
r 0.358752 2 0 ack 40 ------- 1 4.0 0.0 12 38
+ 0.358752 0 2 tcp 1040 ------- 1 0.0 4.0 25 55
- 0.358752 0 2 tcp 1040 ------- 1 0.0 4.0 25 55
+ 0.358752 0 2 tcp 1040 ------- 1 0.0 4.0 26 56
- 0.359376 2 3 cbr 500 ------- 2 1.0 5.0 9 39
r 0.3594 1 2 cbr 500 ------- 2 1.0 5.0 14 54
+ 0.3594 2 3 cbr 500 ------- 2 1.0 5.0 14 54
- 0.359584 0 2 tcp 1040 ------- 1 0.0 4.0 26 56
+ 0.36 1 2 cbr 500 ------- 2 1.0 5.0 15 57
- 0.36 1 2 cbr 500 ------- 2 1.0 5.0 15 57
r 0.360069 2 3 cbr 500 ------- 2 1.0 5.0 7 34
+ 0.360069 3 5 cbr 500 ------- 2 1.0 5.0 7 34
- 0.360069 3 5 cbr 500 ------- 2 1.0 5.0 7 34
r 0.360136 3 5 cbr 500 ------- 2 1.0 5.0 5 30
r 0.361584 0 2 tcp 1040 ------- 1 0.0 4.0 25 55
+ 0.361584 2 3 tcp 1040 ------- 1 0.0 4.0 25 55
- 0.362043 2 3 tcp 1040 ------- 1 0.0 4.0 18 41
r 0.362267 3 2 ack 40 ------- 1 4.0 0.0 13 42
+ 0.362267 2 0 ack 40 ------- 1 4.0 0.0 13 42
- 0.362267 2 0 ack 40 ------- 1 4.0 0.0 13 42
r 0.362416 0 2 tcp 1040 ------- 1 0.0 4.0 26 56
+ 0.362416 2 3 tcp 1040 ------- 1 0.0 4.0 26 56
r 0.362803 3 5 cbr 500 ------- 2 1.0 5.0 6 32
r 0.3634 1 2 cbr 500 ------- 2 1.0 5.0 15 57
+ 0.3634 2 3 cbr 500 ------- 2 1.0 5.0 15 57
+ 0.364 1 2 cbr 500 ------- 2 1.0 5.0 16 58
- 0.364 1 2 cbr 500 ------- 2 1.0 5.0 16 58
r 0.364299 2 0 ack 40 ------- 1 4.0 0.0 13 42
+ 0.364299 0 2 tcp 1040 ------- 1 0.0 4.0 27 59
- 0.364299 0 2 tcp 1040 ------- 1 0.0 4.0 27 59
+ 0.364299 0 2 tcp 1040 ------- 1 0.0 4.0 28 60
- 0.365131 0 2 tcp 1040 ------- 1 0.0 4.0 28 60
r 0.365469 3 5 cbr 500 ------- 2 1.0 5.0 7 34
r 0.365616 2 3 tcp 1040 ------- 1 0.0 4.0 15 35
+ 0.365616 3 4 tcp 1040 ------- 1 0.0 4.0 15 35
- 0.365616 3 4 tcp 1040 ------- 1 0.0 4.0 15 35
r 0.367131 0 2 tcp 1040 ------- 1 0.0 4.0 27 59
+ 0.367131 2 3 tcp 1040 ------- 1 0.0 4.0 27 59
r 0.3674 1 2 cbr 500 ------- 2 1.0 5.0 16 58
+ 0.3674 2 3 cbr 500 ------- 2 1.0 5.0 16 58
- 0.367589 2 3 cbr 500 ------- 2 1.0 5.0 10 43
r 0.367813 3 2 ack 40 ------- 1 4.0 0.0 14 46
+ 0.367813 2 0 ack 40 ------- 1 4.0 0.0 14 46
- 0.367813 2 0 ack 40 ------- 1 4.0 0.0 14 46
r 0.367963 0 2 tcp 1040 ------- 1 0.0 4.0 28 60
+ 0.367963 2 3 tcp 1040 ------- 1 0.0 4.0 28 60
+ 0.368 1 2 cbr 500 ------- 2 1.0 5.0 17 61
- 0.368 1 2 cbr 500 ------- 2 1.0 5.0 17 61
r 0.369845 2 0 ack 40 ------- 1 4.0 0.0 14 46
+ 0.369845 0 2 tcp 1040 ------- 1 0.0 4.0 29 62
- 0.369845 0 2 tcp 1040 ------- 1 0.0 4.0 29 62
+ 0.369845 0 2 tcp 1040 ------- 1 0.0 4.0 30 63
- 0.370256 2 3 tcp 1040 ------- 1 0.0 4.0 19 44
r 0.370448 3 4 tcp 1040 ------- 1 0.0 4.0 15 35
+ 0.370448 4 3 ack 40 ------- 1 4.0 0.0 15 64
- 0.370448 4 3 ack 40 ------- 1 4.0 0.0 15 64
- 0.370677 0 2 tcp 1040 ------- 1 0.0 4.0 30 63
r 0.371163 2 3 tcp 1040 ------- 1 0.0 4.0 16 36
+ 0.371163 3 4 tcp 1040 ------- 1 0.0 4.0 16 36
- 0.371163 3 4 tcp 1040 ------- 1 0.0 4.0 16 36
r 0.3714 1 2 cbr 500 ------- 2 1.0 5.0 17 61
+ 0.3714 2 3 cbr 500 ------- 2 1.0 5.0 17 61
+ 0.372 1 2 cbr 500 ------- 2 1.0 5.0 18 65
- 0.372 1 2 cbr 500 ------- 2 1.0 5.0 18 65
r 0.372677 0 2 tcp 1040 ------- 1 0.0 4.0 29 62
+ 0.372677 2 3 tcp 1040 ------- 1 0.0 4.0 29 62
d 0.372677 2 3 tcp 1040 ------- 1 0.0 4.0 29 62
r 0.373509 0 2 tcp 1040 ------- 1 0.0 4.0 30 63
+ 0.373509 2 3 tcp 1040 ------- 1 0.0 4.0 30 63
d 0.373509 2 3 tcp 1040 ------- 1 0.0 4.0 30 63
r 0.373829 2 3 cbr 500 ------- 2 1.0 5.0 8 37
+ 0.373829 3 5 cbr 500 ------- 2 1.0 5.0 8 37
- 0.373829 3 5 cbr 500 ------- 2 1.0 5.0 8 37
r 0.37448 4 3 ack 40 ------- 1 4.0 0.0 15 64
+ 0.37448 3 2 ack 40 ------- 1 4.0 0.0 15 64
- 0.37448 3 2 ack 40 ------- 1 4.0 0.0 15 64
r 0.3754 1 2 cbr 500 ------- 2 1.0 5.0 18 65
+ 0.3754 2 3 cbr 500 ------- 2 1.0 5.0 18 65
d 0.3754 2 3 cbr 500 ------- 2 1.0 5.0 18 65
- 0.375803 2 3 tcp 1040 ------- 1 0.0 4.0 20 45
r 0.375995 3 4 tcp 1040 ------- 1 0.0 4.0 16 36
+ 0.375995 4 3 ack 40 ------- 1 4.0 0.0 16 66
- 0.375995 4 3 ack 40 ------- 1 4.0 0.0 16 66
+ 0.376 1 2 cbr 500 ------- 2 1.0 5.0 19 67
- 0.376 1 2 cbr 500 ------- 2 1.0 5.0 19 67
r 0.379229 3 5 cbr 500 ------- 2 1.0 5.0 8 37
r 0.379376 2 3 tcp 1040 ------- 1 0.0 4.0 17 40
+ 0.379376 3 4 tcp 1040 ------- 1 0.0 4.0 17 40
- 0.379376 3 4 tcp 1040 ------- 1 0.0 4.0 17 40
r 0.3794 1 2 cbr 500 ------- 2 1.0 5.0 19 67
+ 0.3794 2 3 cbr 500 ------- 2 1.0 5.0 19 67
+ 0.38 1 2 cbr 500 ------- 2 1.0 5.0 20 68
- 0.38 1 2 cbr 500 ------- 2 1.0 5.0 20 68
r 0.380027 4 3 ack 40 ------- 1 4.0 0.0 16 66
+ 0.380027 3 2 ack 40 ------- 1 4.0 0.0 16 66
- 0.380027 3 2 ack 40 ------- 1 4.0 0.0 16 66
- 0.381349 2 3 cbr 500 ------- 2 1.0 5.0 11 47
r 0.382043 2 3 cbr 500 ------- 2 1.0 5.0 9 39
+ 0.382043 3 5 cbr 500 ------- 2 1.0 5.0 9 39
- 0.382043 3 5 cbr 500 ------- 2 1.0 5.0 9 39
r 0.3834 1 2 cbr 500 ------- 2 1.0 5.0 20 68
+ 0.3834 2 3 cbr 500 ------- 2 1.0 5.0 20 68
+ 0.384 1 2 cbr 500 ------- 2 1.0 5.0 21 69
- 0.384 1 2 cbr 500 ------- 2 1.0 5.0 21 69
- 0.384016 2 3 tcp 1040 ------- 1 0.0 4.0 21 48
r 0.384208 3 4 tcp 1040 ------- 1 0.0 4.0 17 40
+ 0.384208 4 3 ack 40 ------- 1 4.0 0.0 17 70
- 0.384208 4 3 ack 40 ------- 1 4.0 0.0 17 70
r 0.3874 1 2 cbr 500 ------- 2 1.0 5.0 21 69
+ 0.3874 2 3 cbr 500 ------- 2 1.0 5.0 21 69
r 0.387443 3 5 cbr 500 ------- 2 1.0 5.0 9 39
r 0.387589 2 3 tcp 1040 ------- 1 0.0 4.0 18 41
+ 0.387589 3 4 tcp 1040 ------- 1 0.0 4.0 18 41
- 0.387589 3 4 tcp 1040 ------- 1 0.0 4.0 18 41
+ 0.388 1 2 cbr 500 ------- 2 1.0 5.0 22 71
- 0.388 1 2 cbr 500 ------- 2 1.0 5.0 22 71
r 0.38824 4 3 ack 40 ------- 1 4.0 0.0 17 70
+ 0.38824 3 2 ack 40 ------- 1 4.0 0.0 17 70
- 0.38824 3 2 ack 40 ------- 1 4.0 0.0 17 70
- 0.389563 2 3 tcp 1040 ------- 1 0.0 4.0 22 49
r 0.390256 2 3 cbr 500 ------- 2 1.0 5.0 10 43
+ 0.390256 3 5 cbr 500 ------- 2 1.0 5.0 10 43
- 0.390256 3 5 cbr 500 ------- 2 1.0 5.0 10 43
r 0.3914 1 2 cbr 500 ------- 2 1.0 5.0 22 71
+ 0.3914 2 3 cbr 500 ------- 2 1.0 5.0 22 71
+ 0.392 1 2 cbr 500 ------- 2 1.0 5.0 23 72
- 0.392 1 2 cbr 500 ------- 2 1.0 5.0 23 72
r 0.392421 3 4 tcp 1040 ------- 1 0.0 4.0 18 41
+ 0.392421 4 3 ack 40 ------- 1 4.0 0.0 18 73
- 0.392421 4 3 ack 40 ------- 1 4.0 0.0 18 73
r 0.394693 3 2 ack 40 ------- 1 4.0 0.0 15 64
+ 0.394693 2 0 ack 40 ------- 1 4.0 0.0 15 64
- 0.394693 2 0 ack 40 ------- 1 4.0 0.0 15 64
- 0.395109 2 3 cbr 500 ------- 2 1.0 5.0 12 50
r 0.3954 1 2 cbr 500 ------- 2 1.0 5.0 23 72
+ 0.3954 2 3 cbr 500 ------- 2 1.0 5.0 23 72
r 0.395656 3 5 cbr 500 ------- 2 1.0 5.0 10 43
r 0.395803 2 3 tcp 1040 ------- 1 0.0 4.0 19 44
+ 0.395803 3 4 tcp 1040 ------- 1 0.0 4.0 19 44
- 0.395803 3 4 tcp 1040 ------- 1 0.0 4.0 19 44
+ 0.396 1 2 cbr 500 ------- 2 1.0 5.0 24 74
- 0.396 1 2 cbr 500 ------- 2 1.0 5.0 24 74
r 0.396453 4 3 ack 40 ------- 1 4.0 0.0 18 73
+ 0.396453 3 2 ack 40 ------- 1 4.0 0.0 18 73
- 0.396453 3 2 ack 40 ------- 1 4.0 0.0 18 73
r 0.396725 2 0 ack 40 ------- 1 4.0 0.0 15 64
+ 0.396725 0 2 tcp 1040 ------- 1 0.0 4.0 31 75
- 0.396725 0 2 tcp 1040 ------- 1 0.0 4.0 31 75
+ 0.396725 0 2 tcp 1040 ------- 1 0.0 4.0 32 76
- 0.397557 0 2 tcp 1040 ------- 1 0.0 4.0 32 76
- 0.397776 2 3 cbr 500 ------- 2 1.0 5.0 13 51
r 0.3994 1 2 cbr 500 ------- 2 1.0 5.0 24 74
+ 0.3994 2 3 cbr 500 ------- 2 1.0 5.0 24 74
r 0.399557 0 2 tcp 1040 ------- 1 0.0 4.0 31 75
+ 0.399557 2 3 tcp 1040 ------- 1 0.0 4.0 31 75
+ 0.4 1 2 cbr 500 ------- 2 1.0 5.0 25 77
- 0.4 1 2 cbr 500 ------- 2 1.0 5.0 25 77
r 0.40024 3 2 ack 40 ------- 1 4.0 0.0 16 66
+ 0.40024 2 0 ack 40 ------- 1 4.0 0.0 16 66
- 0.40024 2 0 ack 40 ------- 1 4.0 0.0 16 66
r 0.400389 0 2 tcp 1040 ------- 1 0.0 4.0 32 76
+ 0.400389 2 3 tcp 1040 ------- 1 0.0 4.0 32 76
- 0.400443 2 3 tcp 1040 ------- 1 0.0 4.0 23 52
r 0.400635 3 4 tcp 1040 ------- 1 0.0 4.0 19 44
+ 0.400635 4 3 ack 40 ------- 1 4.0 0.0 19 78
- 0.400635 4 3 ack 40 ------- 1 4.0 0.0 19 78
r 0.401349 2 3 tcp 1040 ------- 1 0.0 4.0 20 45
+ 0.401349 3 4 tcp 1040 ------- 1 0.0 4.0 20 45
- 0.401349 3 4 tcp 1040 ------- 1 0.0 4.0 20 45
r 0.402272 2 0 ack 40 ------- 1 4.0 0.0 16 66
+ 0.402272 0 2 tcp 1040 ------- 1 0.0 4.0 33 79
- 0.402272 0 2 tcp 1040 ------- 1 0.0 4.0 33 79
+ 0.402272 0 2 tcp 1040 ------- 1 0.0 4.0 34 80
- 0.403104 0 2 tcp 1040 ------- 1 0.0 4.0 34 80
r 0.4034 1 2 cbr 500 ------- 2 1.0 5.0 25 77
+ 0.4034 2 3 cbr 500 ------- 2 1.0 5.0 25 77
+ 0.404 1 2 cbr 500 ------- 2 1.0 5.0 26 81
- 0.404 1 2 cbr 500 ------- 2 1.0 5.0 26 81
r 0.404016 2 3 cbr 500 ------- 2 1.0 5.0 11 47
+ 0.404016 3 5 cbr 500 ------- 2 1.0 5.0 11 47
- 0.404016 3 5 cbr 500 ------- 2 1.0 5.0 11 47
r 0.404667 4 3 ack 40 ------- 1 4.0 0.0 19 78
+ 0.404667 3 2 ack 40 ------- 1 4.0 0.0 19 78
- 0.404667 3 2 ack 40 ------- 1 4.0 0.0 19 78
r 0.405104 0 2 tcp 1040 ------- 1 0.0 4.0 33 79
+ 0.405104 2 3 tcp 1040 ------- 1 0.0 4.0 33 79
d 0.405104 2 3 tcp 1040 ------- 1 0.0 4.0 33 79
r 0.405936 0 2 tcp 1040 ------- 1 0.0 4.0 34 80
+ 0.405936 2 3 tcp 1040 ------- 1 0.0 4.0 34 80
d 0.405936 2 3 tcp 1040 ------- 1 0.0 4.0 34 80
- 0.405989 2 3 tcp 1040 ------- 1 0.0 4.0 24 53
r 0.406181 3 4 tcp 1040 ------- 1 0.0 4.0 20 45
+ 0.406181 4 3 ack 40 ------- 1 4.0 0.0 20 82
- 0.406181 4 3 ack 40 ------- 1 4.0 0.0 20 82
r 0.4074 1 2 cbr 500 ------- 2 1.0 5.0 26 81
+ 0.4074 2 3 cbr 500 ------- 2 1.0 5.0 26 81
+ 0.408 1 2 cbr 500 ------- 2 1.0 5.0 27 83
- 0.408 1 2 cbr 500 ------- 2 1.0 5.0 27 83
r 0.408453 3 2 ack 40 ------- 1 4.0 0.0 17 70
+ 0.408453 2 0 ack 40 ------- 1 4.0 0.0 17 70
- 0.408453 2 0 ack 40 ------- 1 4.0 0.0 17 70
r 0.409416 3 5 cbr 500 ------- 2 1.0 5.0 11 47
r 0.409563 2 3 tcp 1040 ------- 1 0.0 4.0 21 48
+ 0.409563 3 4 tcp 1040 ------- 1 0.0 4.0 21 48
- 0.409563 3 4 tcp 1040 ------- 1 0.0 4.0 21 48
r 0.410213 4 3 ack 40 ------- 1 4.0 0.0 20 82
+ 0.410213 3 2 ack 40 ------- 1 4.0 0.0 20 82
- 0.410213 3 2 ack 40 ------- 1 4.0 0.0 20 82
r 0.410485 2 0 ack 40 ------- 1 4.0 0.0 17 70
+ 0.410485 0 2 tcp 1040 ------- 1 0.0 4.0 35 84
- 0.410485 0 2 tcp 1040 ------- 1 0.0 4.0 35 84
+ 0.410485 0 2 tcp 1040 ------- 1 0.0 4.0 36 85
- 0.411317 0 2 tcp 1040 ------- 1 0.0 4.0 36 85
r 0.4114 1 2 cbr 500 ------- 2 1.0 5.0 27 83
+ 0.4114 2 3 cbr 500 ------- 2 1.0 5.0 27 83
- 0.411536 2 3 cbr 500 ------- 2 1.0 5.0 14 54
+ 0.412 1 2 cbr 500 ------- 2 1.0 5.0 28 86
- 0.412 1 2 cbr 500 ------- 2 1.0 5.0 28 86
r 0.413317 0 2 tcp 1040 ------- 1 0.0 4.0 35 84
+ 0.413317 2 3 tcp 1040 ------- 1 0.0 4.0 35 84
r 0.414149 0 2 tcp 1040 ------- 1 0.0 4.0 36 85
+ 0.414149 2 3 tcp 1040 ------- 1 0.0 4.0 36 85
d 0.414149 2 3 tcp 1040 ------- 1 0.0 4.0 36 85
- 0.414203 2 3 tcp 1040 ------- 1 0.0 4.0 25 55
r 0.414395 3 4 tcp 1040 ------- 1 0.0 4.0 21 48
+ 0.414395 4 3 ack 40 ------- 1 4.0 0.0 21 87
- 0.414395 4 3 ack 40 ------- 1 4.0 0.0 21 87
r 0.415109 2 3 tcp 1040 ------- 1 0.0 4.0 22 49
+ 0.415109 3 4 tcp 1040 ------- 1 0.0 4.0 22 49
- 0.415109 3 4 tcp 1040 ------- 1 0.0 4.0 22 49
r 0.4154 1 2 cbr 500 ------- 2 1.0 5.0 28 86
+ 0.4154 2 3 cbr 500 ------- 2 1.0 5.0 28 86
+ 0.416 1 2 cbr 500 ------- 2 1.0 5.0 29 88
- 0.416 1 2 cbr 500 ------- 2 1.0 5.0 29 88
r 0.416667 3 2 ack 40 ------- 1 4.0 0.0 18 73
+ 0.416667 2 0 ack 40 ------- 1 4.0 0.0 18 73
- 0.416667 2 0 ack 40 ------- 1 4.0 0.0 18 73
r 0.417776 2 3 cbr 500 ------- 2 1.0 5.0 12 50
+ 0.417776 3 5 cbr 500 ------- 2 1.0 5.0 12 50
- 0.417776 3 5 cbr 500 ------- 2 1.0 5.0 12 50
r 0.418427 4 3 ack 40 ------- 1 4.0 0.0 21 87
+ 0.418427 3 2 ack 40 ------- 1 4.0 0.0 21 87
- 0.418427 3 2 ack 40 ------- 1 4.0 0.0 21 87
r 0.418699 2 0 ack 40 ------- 1 4.0 0.0 18 73
+ 0.418699 0 2 tcp 1040 ------- 1 0.0 4.0 37 89
- 0.418699 0 2 tcp 1040 ------- 1 0.0 4.0 37 89
+ 0.418699 0 2 tcp 1040 ------- 1 0.0 4.0 38 90
r 0.4194 1 2 cbr 500 ------- 2 1.0 5.0 29 88
+ 0.4194 2 3 cbr 500 ------- 2 1.0 5.0 29 88
d 0.4194 2 3 cbr 500 ------- 2 1.0 5.0 29 88
- 0.419531 0 2 tcp 1040 ------- 1 0.0 4.0 38 90
- 0.419749 2 3 tcp 1040 ------- 1 0.0 4.0 26 56
r 0.419941 3 4 tcp 1040 ------- 1 0.0 4.0 22 49
+ 0.419941 4 3 ack 40 ------- 1 4.0 0.0 22 91
- 0.419941 4 3 ack 40 ------- 1 4.0 0.0 22 91