+ 0 0 2 tcp 1000 ------- 1 0.0 4.0 0 0
- 0 0 2 tcp 1000 ------- 1 0.0 4.0 0 0
r 0.0108 0 2 tcp 1000 ------- 1 0.0 4.0 0 0
+ 0.0108 2 3 tcp 1000 ------- 1 0.0 4.0 0 0
- 0.0108 2 3 tcp 1000 ------- 1 0.0 4.0 0 0
r 0.0216 2 3 tcp 1000 ------- 1 0.0 4.0 0 0
+ 0.0216 3 4 tcp 1000 ------- 1 0.0 4.0 0 0
- 0.0216 3 4 tcp 1000 ------- 1 0.0 4.0 0 0
r 0.0324 3 4 tcp 1000 ------- 1 0.0 4.0 0 0
+ 0.0324 4 3 ack 40 ------- 1 4.0 0.0 0 1
- 0.0324 4 3 ack 40 ------- 1 4.0 0.0 0 1
r 0.042432 4 3 ack 40 ------- 1 4.0 0.0 0 1
+ 0.042432 3 2 ack 40 ------- 1 4.0 0.0 0 1
- 0.042432 3 2 ack 40 ------- 1 4.0 0.0 0 1
r 0.052464 3 2 ack 40 ------- 1 4.0 0.0 0 1
+ 0.052464 2 0 ack 40 ------- 1 4.0 0.0 0 1
- 0.052464 2 0 ack 40 ------- 1 4.0 0.0 0 1
r 0.062496 2 0 ack 40 ------- 1 4.0 0.0 0 1
+ 0.062496 0 2 tcp 1000 ------- 1 0.0 4.0 1 2
- 0.062496 0 2 tcp 1000 ------- 1 0.0 4.0 1 2
r 0.073296 0 2 tcp 1000 ------- 1 0.0 4.0 1 2
+ 0.073296 2 3 tcp 1000 ------- 1 0.0 4.0 1 2
- 0.073296 2 3 tcp 1000 ------- 1 0.0 4.0 1 2
r 0.084096 2 3 tcp 1000 ------- 1 0.0 4.0 1 2
+ 0.084096 3 4 tcp 1000 ------- 1 0.0 4.0 1 2
- 0.084096 3 4 tcp 1000 ------- 1 0.0 4.0 1 2
r 0.094896 3 4 tcp 1000 ------- 1 0.0 4.0 1 2
+ 0.094896 4 3 ack 40 ------- 1 4.0 0.0 1 3
- 0.094896 4 3 ack 40 ------- 1 4.0 0.0 1 3
r 0.104928 4 3 ack 40 ------- 1 4.0 0.0 1 3
+ 0.104928 3 2 ack 40 ------- 1 4.0 0.0 1 3
- 0.104928 3 2 ack 40 ------- 1 4.0 0.0 1 3
r 0.11496 3 2 ack 40 ------- 1 4.0 0.0 1 3
+ 0.11496 2 0 ack 40 ------- 1 4.0 0.0 1 3
- 0.11496 2 0 ack 40 ------- 1 4.0 0.0 1 3
r 0.124992 2 0 ack 40 ------- 1 4.0 0.0 1 3
+ 0.124992 0 2 tcp 1000 ------- 1 0.0 4.0 2 4
- 0.124992 0 2 tcp 1000 ------- 1 0.0 4.0 2 4
+ 0.124992 0 2 tcp 1000 ------- 1 0.0 4.0 3 5
+ 0.124992 0 2 tcp 1000 ------- 1 0.0 4.0 4 6
- 0.125792 0 2 tcp 1000 ------- 1 0.0 4.0 3 5
- 0.126592 0 2 tcp 1000 ------- 1 0.0 4.0 4 6
r 0.135792 0 2 tcp 1000 ------- 1 0.0 4.0 2 4
+ 0.135792 2 3 tcp 1000 ------- 1 0.0 4.0 2 4
- 0.135792 2 3 tcp 1000 ------- 1 0.0 4.0 2 4
r 0.136592 0 2 tcp 1000 ------- 1 0.0 4.0 3 5
+ 0.136592 2 3 tcp 1000 ------- 1 0.0 4.0 3 5
- 0.136592 2 3 tcp 1000 ------- 1 0.0 4.0 3 5
r 0.137392 0 2 tcp 1000 ------- 1 0.0 4.0 4 6
+ 0.137392 2 3 tcp 1000 ------- 1 0.0 4.0 4 6
- 0.137392 2 3 tcp 1000 ------- 1 0.0 4.0 4 6
r 0.146592 2 3 tcp 1000 ------- 1 0.0 4.0 2 4
+ 0.146592 3 4 tcp 1000 ------- 1 0.0 4.0 2 4
- 0.146592 3 4 tcp 1000 ------- 1 0.0 4.0 2 4
r 0.147392 2 3 tcp 1000 ------- 1 0.0 4.0 3 5
+ 0.147392 3 4 tcp 1000 ------- 1 0.0 4.0 3 5
- 0.147392 3 4 tcp 1000 ------- 1 0.0 4.0 3 5
r 0.148192 2 3 tcp 1000 ------- 1 0.0 4.0 4 6
+ 0.148192 3 4 tcp 1000 ------- 1 0.0 4.0 4 6
- 0.148192 3 4 tcp 1000 ------- 1 0.0 4.0 4 6
r 0.157392 3 4 tcp 1000 ------- 1 0.0 4.0 2 4
+ 0.157392 4 3 ack 40 ------- 1 4.0 0.0 2 7
- 0.157392 4 3 ack 40 ------- 1 4.0 0.0 2 7
r 0.158192 3 4 tcp 1000 ------- 1 0.0 4.0 3 5
+ 0.158192 4 3 ack 40 ------- 1 4.0 0.0 3 8
- 0.158192 4 3 ack 40 ------- 1 4.0 0.0 3 8
r 0.158992 3 4 tcp 1000 ------- 1 0.0 4.0 4 6
+ 0.158992 4 3 ack 40 ------- 1 4.0 0.0 4 9
- 0.158992 4 3 ack 40 ------- 1 4.0 0.0 4 9
r 0.167424 4 3 ack 40 ------- 1 4.0 0.0 2 7
+ 0.167424 3 2 ack 40 ------- 1 4.0 0.0 2 7
- 0.167424 3 2 ack 40 ------- 1 4.0 0.0 2 7
r 0.168224 4 3 ack 40 ------- 1 4.0 0.0 3 8
+ 0.168224 3 2 ack 40 ------- 1 4.0 0.0 3 8
- 0.168224 3 2 ack 40 ------- 1 4.0 0.0 3 8
r 0.169024 4 3 ack 40 ------- 1 4.0 0.0 4 9
+ 0.169024 3 2 ack 40 ------- 1 4.0 0.0 4 9
- 0.169024 3 2 ack 40 ------- 1 4.0 0.0 4 9
r 0.177456 3 2 ack 40 ------- 1 4.0 0.0 2 7
+ 0.177456 2 0 ack 40 ------- 1 4.0 0.0 2 7
- 0.177456 2 0 ack 40 ------- 1 4.0 0.0 2 7
r 0.178256 3 2 ack 40 ------- 1 4.0 0.0 3 8
+ 0.178256 2 0 ack 40 ------- 1 4.0 0.0 3 8
- 0.178256 2 0 ack 40 ------- 1 4.0 0.0 3 8
r 0.179056 3 2 ack 40 ------- 1 4.0 0.0 4 9
+ 0.179056 2 0 ack 40 ------- 1 4.0 0.0 4 9
- 0.179056 2 0 ack 40 ------- 1 4.0 0.0 4 9
r 0.187488 2 0 ack 40 ------- 1 4.0 0.0 2 7
+ 0.187488 0 2 tcp 1000 ------- 1 0.0 4.0 5 10
- 0.187488 0 2 tcp 1000 ------- 1 0.0 4.0 5 10
r 0.188288 2 0 ack 40 ------- 1 4.0 0.0 3 8
+ 0.188288 0 2 tcp 1000 ------- 1 0.0 4.0 6 11
- 0.188288 0 2 tcp 1000 ------- 1 0.0 4.0 6 11
r 0.189088 2 0 ack 40 ------- 1 4.0 0.0 4 9
+ 0.189088 0 2 tcp 1000 ------- 1 0.0 4.0 7 12
- 0.189088 0 2 tcp 1000 ------- 1 0.0 4.0 7 12
r 0.198288 0 2 tcp 1000 ------- 1 0.0 4.0 5 10
+ 0.198288 2 3 tcp 1000 ------- 1 0.0 4.0 5 10
- 0.198288 2 3 tcp 1000 ------- 1 0.0 4.0 5 10
r 0.199088 0 2 tcp 1000 ------- 1 0.0 4.0 6 11
+ 0.199088 2 3 tcp 1000 ------- 1 0.0 4.0 6 11
- 0.199088 2 3 tcp 1000 ------- 1 0.0 4.0 6 11
r 0.199888 0 2 tcp 1000 ------- 1 0.0 4.0 7 12
+ 0.199888 2 3 tcp 1000 ------- 1 0.0 4.0 7 12
- 0.199888 2 3 tcp 1000 ------- 1 0.0 4.0 7 12
r 0.209088 2 3 tcp 1000 ------- 1 0.0 4.0 5 10
+ 0.209088 3 4 tcp 1000 ------- 1 0.0 4.0 5 10
- 0.209088 3 4 tcp 1000 ------- 1 0.0 4.0 5 10
r 0.209888 2 3 tcp 1000 ------- 1 0.0 4.0 6 11
+ 0.209888 3 4 tcp 1000 ------- 1 0.0 4.0 6 11
- 0.209888 3 4 tcp 1000 ------- 1 0.0 4.0 6 11
r 0.210688 2 3 tcp 1000 ------- 1 0.0 4.0 7 12
+ 0.210688 3 4 tcp 1000 ------- 1 0.0 4.0 7 12
- 0.210688 3 4 tcp 1000 ------- 1 0.0 4.0 7 12
r 0.219888 3 4 tcp 1000 ------- 1 0.0 4.0 5 10
+ 0.219888 4 3 ack 40 ------- 1 4.0 0.0 5 13
- 0.219888 4 3 ack 40 ------- 1 4.0 0.0 5 13
r 0.220688 3 4 tcp 1000 ------- 1 0.0 4.0 6 11
+ 0.220688 4 3 ack 40 ------- 1 4.0 0.0 6 14
- 0.220688 4 3 ack 40 ------- 1 4.0 0.0 6 14
r 0.221488 3 4 tcp 1000 ------- 1 0.0 4.0 7 12
+ 0.221488 4 3 ack 40 ------- 1 4.0 0.0 7 15
- 0.221488 4 3 ack 40 ------- 1 4.0 0.0 7 15
r 0.22992 4 3 ack 40 ------- 1 4.0 0.0 5 13
+ 0.22992 3 2 ack 40 ------- 1 4.0 0.0 5 13
- 0.22992 3 2 ack 40 ------- 1 4.0 0.0 5 13
r 0.23072 4 3 ack 40 ------- 1 4.0 0.0 6 14
+ 0.23072 3 2 ack 40 ------- 1 4.0 0.0 6 14
- 0.23072 3 2 ack 40 ------- 1 4.0 0.0 6 14
r 0.23152 4 3 ack 40 ------- 1 4.0 0.0 7 15
+ 0.23152 3 2 ack 40 ------- 1 4.0 0.0 7 15
- 0.23152 3 2 ack 40 ------- 1 4.0 0.0 7 15
r 0.239952 3 2 ack 40 ------- 1 4.0 0.0 5 13
+ 0.239952 2 0 ack 40 ------- 1 4.0 0.0 5 13
- 0.239952 2 0 ack 40 ------- 1 4.0 0.0 5 13
r 0.240752 3 2 ack 40 ------- 1 4.0 0.0 6 14
+ 0.240752 2 0 ack 40 ------- 1 4.0 0.0 6 14
- 0.240752 2 0 ack 40 ------- 1 4.0 0.0 6 14
r 0.241552 3 2 ack 40 ------- 1 4.0 0.0 7 15
+ 0.241552 2 0 ack 40 ------- 1 4.0 0.0 7 15
- 0.241552 2 0 ack 40 ------- 1 4.0 0.0 7 15
r 0.249984 2 0 ack 40 ------- 1 4.0 0.0 5 13
+ 0.249984 0 2 tcp 1000 ------- 1 0.0 4.0 8 16
- 0.249984 0 2 tcp 1000 ------- 1 0.0 4.0 8 16
+ 0.249984 0 2 tcp 1000 ------- 1 0.0 4.0 9 17
r 0.250784 2 0 ack 40 ------- 1 4.0 0.0 6 14
+ 0.250784 0 2 tcp 1000 ------- 1 0.0 4.0 10 18
+ 0.250784 0 2 tcp 1000 ------- 1 0.0 4.0 11 19
- 0.250784 0 2 tcp 1000 ------- 1 0.0 4.0 9 17
r 0.251584 2 0 ack 40 ------- 1 4.0 0.0 7 15
+ 0.251584 0 2 tcp 1000 ------- 1 0.0 4.0 12 20
+ 0.251584 0 2 tcp 1000 ------- 1 0.0 4.0 13 21
- 0.251584 0 2 tcp 1000 ------- 1 0.0 4.0 10 18
- 0.252384 0 2 tcp 1000 ------- 1 0.0 4.0 11 19
- 0.253184 0 2 tcp 1000 ------- 1 0.0 4.0 12 20
- 0.253984 0 2 tcp 1000 ------- 1 0.0 4.0 13 21
r 0.260784 0 2 tcp 1000 ------- 1 0.0 4.0 8 16
+ 0.260784 2 3 tcp 1000 ------- 1 0.0 4.0 8 16
- 0.260784 2 3 tcp 1000 ------- 1 0.0 4.0 8 16
r 0.261584 0 2 tcp 1000 ------- 1 0.0 4.0 9 17
+ 0.261584 2 3 tcp 1000 ------- 1 0.0 4.0 9 17
- 0.261584 2 3 tcp 1000 ------- 1 0.0 4.0 9 17
r 0.262384 0 2 tcp 1000 ------- 1 0.0 4.0 10 18
+ 0.262384 2 3 tcp 1000 ------- 1 0.0 4.0 10 18
- 0.262384 2 3 tcp 1000 ------- 1 0.0 4.0 10 18
r 0.263184 0 2 tcp 1000 ------- 1 0.0 4.0 11 19
+ 0.263184 2 3 tcp 1000 ------- 1 0.0 4.0 11 19
- 0.263184 2 3 tcp 1000 ------- 1 0.0 4.0 11 19
r 0.263984 0 2 tcp 1000 ------- 1 0.0 4.0 12 20
+ 0.263984 2 3 tcp 1000 ------- 1 0.0 4.0 12 20
- 0.263984 2 3 tcp 1000 ------- 1 0.0 4.0 12 20
r 0.264784 0 2 tcp 1000 ------- 1 0.0 4.0 13 21
+ 0.264784 2 3 tcp 1000 ------- 1 0.0 4.0 13 21
- 0.264784 2 3 tcp 1000 ------- 1 0.0 4.0 13 21
r 0.271584 2 3 tcp 1000 ------- 1 0.0 4.0 8 16
+ 0.271584 3 4 tcp 1000 ------- 1 0.0 4.0 8 16
- 0.271584 3 4 tcp 1000 ------- 1 0.0 4.0 8 16
r 0.272384 2 3 tcp 1000 ------- 1 0.0 4.0 9 17
+ 0.272384 3 4 tcp 1000 ------- 1 0.0 4.0 9 17
- 0.272384 3 4 tcp 1000 ------- 1 0.0 4.0 9 17
r 0.273184 2 3 tcp 1000 ------- 1 0.0 4.0 10 18
+ 0.273184 3 4 tcp 1000 ------- 1 0.0 4.0 10 18
- 0.273184 3 4 tcp 1000 ------- 1 0.0 4.0 10 18
r 0.273984 2 3 tcp 1000 ------- 1 0.0 4.0 11 19
+ 0.273984 3 4 tcp 1000 ------- 1 0.0 4.0 11 19
- 0.273984 3 4 tcp 1000 ------- 1 0.0 4.0 11 19
r 0.274784 2 3 tcp 1000 ------- 1 0.0 4.0 12 20
+ 0.274784 3 4 tcp 1000 ------- 1 0.0 4.0 12 20
- 0.274784 3 4 tcp 1000 ------- 1 0.0 4.0 12 20
r 0.275584 2 3 tcp 1000 ------- 1 0.0 4.0 13 21
+ 0.275584 3 4 tcp 1000 ------- 1 0.0 4.0 13 21
- 0.275584 3 4 tcp 1000 ------- 1 0.0 4.0 13 21
r 0.282384 3 4 tcp 1000 ------- 1 0.0 4.0 8 16
+ 0.282384 4 3 ack 40 ------- 1 4.0 0.0 8 22
- 0.282384 4 3 ack 40 ------- 1 4.0 0.0 8 22
r 0.283184 3 4 tcp 1000 ------- 1 0.0 4.0 9 17
+ 0.283184 4 3 ack 40 ------- 1 4.0 0.0 9 23
- 0.283184 4 3 ack 40 ------- 1 4.0 0.0 9 23
r 0.283984 3 4 tcp 1000 ------- 1 0.0 4.0 10 18
+ 0.283984 4 3 ack 40 ------- 1 4.0 0.0 10 24
- 0.283984 4 3 ack 40 ------- 1 4.0 0.0 10 24
r 0.284784 3 4 tcp 1000 ------- 1 0.0 4.0 11 19
+ 0.284784 4 3 ack 40 ------- 1 4.0 0.0 11 25
- 0.284784 4 3 ack 40 ------- 1 4.0 0.0 11 25
r 0.285584 3 4 tcp 1000 ------- 1 0.0 4.0 12 20
+ 0.285584 4 3 ack 40 ------- 1 4.0 0.0 12 26
- 0.285584 4 3 ack 40 ------- 1 4.0 0.0 12 26
r 0.286384 3 4 tcp 1000 ------- 1 0.0 4.0 13 21
+ 0.286384 4 3 ack 40 ------- 1 4.0 0.0 13 27
- 0.286384 4 3 ack 40 ------- 1 4.0 0.0 13 27
r 0.292416 4 3 ack 40 ------- 1 4.0 0.0 8 22
+ 0.292416 3 2 ack 40 ------- 1 4.0 0.0 8 22
- 0.292416 3 2 ack 40 ------- 1 4.0 0.0 8 22
r 0.293216 4 3 ack 40 ------- 1 4.0 0.0 9 23
+ 0.293216 3 2 ack 40 ------- 1 4.0 0.0 9 23
- 0.293216 3 2 ack 40 ------- 1 4.0 0.0 9 23
r 0.294016 4 3 ack 40 ------- 1 4.0 0.0 10 24
+ 0.294016 3 2 ack 40 ------- 1 4.0 0.0 10 24
- 0.294016 3 2 ack 40 ------- 1 4.0 0.0 10 24
r 0.294816 4 3 ack 40 ------- 1 4.0 0.0 11 25
+ 0.294816 3 2 ack 40 ------- 1 4.0 0.0 11 25
- 0.294816 3 2 ack 40 ------- 1 4.0 0.0 11 25
r 0.295616 4 3 ack 40 ------- 1 4.0 0.0 12 26
+ 0.295616 3 2 ack 40 ------- 1 4.0 0.0 12 26
- 0.295616 3 2 ack 40 ------- 1 4.0 0.0 12 26
r 0.296416 4 3 ack 40 ------- 1 4.0 0.0 13 27
+ 0.296416 3 2 ack 40 ------- 1 4.0 0.0 13 27
- 0.296416 3 2 ack 40 ------- 1 4.0 0.0 13 27
r 0.302448 3 2 ack 40 ------- 1 4.0 0.0 8 22
+ 0.302448 2 0 ack 40 ------- 1 4.0 0.0 8 22
- 0.302448 2 0 ack 40 ------- 1 4.0 0.0 8 22
r 0.303248 3 2 ack 40 ------- 1 4.0 0.0 9 23
+ 0.303248 2 0 ack 40 ------- 1 4.0 0.0 9 23
- 0.303248 2 0 ack 40 ------- 1 4.0 0.0 9 23
r 0.304048 3 2 ack 40 ------- 1 4.0 0.0 10 24
+ 0.304048 2 0 ack 40 ------- 1 4.0 0.0 10 24
- 0.304048 2 0 ack 40 ------- 1 4.0 0.0 10 24
r 0.304848 3 2 ack 40 ------- 1 4.0 0.0 11 25
+ 0.304848 2 0 ack 40 ------- 1 4.0 0.0 11 25
- 0.304848 2 0 ack 40 ------- 1 4.0 0.0 11 25
r 0.305648 3 2 ack 40 ------- 1 4.0 0.0 12 26
+ 0.305648 2 0 ack 40 ------- 1 4.0 0.0 12 26
- 0.305648 2 0 ack 40 ------- 1 4.0 0.0 12 26
r 0.306448 3 2 ack 40 ------- 1 4.0 0.0 13 27
+ 0.306448 2 0 ack 40 ------- 1 4.0 0.0 13 27
- 0.306448 2 0 ack 40 ------- 1 4.0 0.0 13 27
r 0.31248 2 0 ack 40 ------- 1 4.0 0.0 8 22
+ 0.31248 0 2 tcp 1000 ------- 1 0.0 4.0 14 28
- 0.31248 0 2 tcp 1000 ------- 1 0.0 4.0 14 28
r 0.31328 2 0 ack 40 ------- 1 4.0 0.0 9 23
+ 0.31328 0 2 tcp 1000 ------- 1 0.0 4.0 15 29
- 0.31328 0 2 tcp 1000 ------- 1 0.0 4.0 15 29
r 0.31408 2 0 ack 40 ------- 1 4.0 0.0 10 24
+ 0.31408 0 2 tcp 1000 ------- 1 0.0 4.0 16 30
- 0.31408 0 2 tcp 1000 ------- 1 0.0 4.0 16 30
r 0.31488 2 0 ack 40 ------- 1 4.0 0.0 11 25
+ 0.31488 0 2 tcp 1000 ------- 1 0.0 4.0 17 31
- 0.31488 0 2 tcp 1000 ------- 1 0.0 4.0 17 31
r 0.31568 2 0 ack 40 ------- 1 4.0 0.0 12 26
+ 0.31568 0 2 tcp 1000 ------- 1 0.0 4.0 18 32
- 0.31568 0 2 tcp 1000 ------- 1 0.0 4.0 18 32
r 0.31648 2 0 ack 40 ------- 1 4.0 0.0 13 27
+ 0.31648 0 2 tcp 1000 ------- 1 0.0 4.0 19 33
- 0.31648 0 2 tcp 1000 ------- 1 0.0 4.0 19 33
r 0.32328 0 2 tcp 1000 ------- 1 0.0 4.0 14 28
+ 0.32328 2 3 tcp 1000 ------- 1 0.0 4.0 14 28
- 0.32328 2 3 tcp 1000 ------- 1 0.0 4.0 14 28
r 0.32408 0 2 tcp 1000 ------- 1 0.0 4.0 15 29
+ 0.32408 2 3 tcp 1000 ------- 1 0.0 4.0 15 29
- 0.32408 2 3 tcp 1000 ------- 1 0.0 4.0 15 29
r 0.32488 0 2 tcp 1000 ------- 1 0.0 4.0 16 30
+ 0.32488 2 3 tcp 1000 ------- 1 0.0 4.0 16 30
- 0.32488 2 3 tcp 1000 ------- 1 0.0 4.0 16 30
r 0.32568 0 2 tcp 1000 ------- 1 0.0 4.0 17 31
+ 0.32568 2 3 tcp 1000 ------- 1 0.0 4.0 17 31
- 0.32568 2 3 tcp 1000 ------- 1 0.0 4.0 17 31
r 0.32648 0 2 tcp 1000 ------- 1 0.0 4.0 18 32
+ 0.32648 2 3 tcp 1000 ------- 1 0.0 4.0 18 32
- 0.32648 2 3 tcp 1000 ------- 1 0.0 4.0 18 32
r 0.32728 0 2 tcp 1000 ------- 1 0.0 4.0 19 33
+ 0.32728 2 3 tcp 1000 ------- 1 0.0 4.0 19 33
- 0.32728 2 3 tcp 1000 ------- 1 0.0 4.0 19 33
r 0.33408 2 3 tcp 1000 ------- 1 0.0 4.0 14 28
+ 0.33408 3 4 tcp 1000 ------- 1 0.0 4.0 14 28
- 0.33408 3 4 tcp 1000 ------- 1 0.0 4.0 14 28
r 0.33488 2 3 tcp 1000 ------- 1 0.0 4.0 15 29
+ 0.33488 3 4 tcp 1000 ------- 1 0.0 4.0 15 29
- 0.33488 3 4 tcp 1000 ------- 1 0.0 4.0 15 29
r 0.33568 2 3 tcp 1000 ------- 1 0.0 4.0 16 30
+ 0.33568 3 4 tcp 1000 ------- 1 0.0 4.0 16 30
- 0.33568 3 4 tcp 1000 ------- 1 0.0 4.0 16 30
r 0.33648 2 3 tcp 1000 ------- 1 0.0 4.0 17 31
+ 0.33648 3 4 tcp 1000 ------- 1 0.0 4.0 17 31
- 0.33648 3 4 tcp 1000 ------- 1 0.0 4.0 17 31
r 0.33728 2 3 tcp 1000 ------- 1 0.0 4.0 18 32
+ 0.33728 3 4 tcp 1000 ------- 1 0.0 4.0 18 32
- 0.33728 3 4 tcp 1000 ------- 1 0.0 4.0 18 32
r 0.33808 2 3 tcp 1000 ------- 1 0.0 4.0 19 33
+ 0.33808 3 4 tcp 1000 ------- 1 0.0 4.0 19 33
- 0.33808 3 4 tcp 1000 ------- 1 0.0 4.0 19 33
r 0.34488 3 4 tcp 1000 ------- 1 0.0 4.0 14 28
+ 0.34488 4 3 ack 40 ------- 1 4.0 0.0 14 34
- 0.34488 4 3 ack 40 ------- 1 4.0 0.0 14 34
r 0.34568 3 4 tcp 1000 ------- 1 0.0 4.0 15 29
+ 0.34568 4 3 ack 40 ------- 1 4.0 0.0 15 35
- 0.34568 4 3 ack 40 ------- 1 4.0 0.0 15 35
r 0.34648 3 4 tcp 1000 ------- 1 0.0 4.0 16 30
+ 0.34648 4 3 ack 40 ------- 1 4.0 0.0 16 36
- 0.34648 4 3 ack 40 ------- 1 4.0 0.0 16 36
r 0.34728 3 4 tcp 1000 ------- 1 0.0 4.0 17 31
+ 0.34728 4 3 ack 40 ------- 1 4.0 0.0 17 37
- 0.34728 4 3 ack 40 ------- 1 4.0 0.0 17 37
r 0.34808 3 4 tcp 1000 ------- 1 0.0 4.0 18 32
+ 0.34808 4 3 ack 40 ------- 1 4.0 0.0 18 38
- 0.34808 4 3 ack 40 ------- 1 4.0 0.0 18 38
r 0.34888 3 4 tcp 1000 ------- 1 0.0 4.0 19 33
+ 0.34888 4 3 ack 40 ------- 1 4.0 0.0 19 39
- 0.34888 4 3 ack 40 ------- 1 4.0 0.0 19 39
r 0.354912 4 3 ack 40 ------- 1 4.0 0.0 14 34
+ 0.354912 3 2 ack 40 ------- 1 4.0 0.0 14 34
- 0.354912 3 2 ack 40 ------- 1 4.0 0.0 14 34
r 0.355712 4 3 ack 40 ------- 1 4.0 0.0 15 35
+ 0.355712 3 2 ack 40 ------- 1 4.0 0.0 15 35
- 0.355712 3 2 ack 40 ------- 1 4.0 0.0 15 35
r 0.356512 4 3 ack 40 ------- 1 4.0 0.0 16 36
+ 0.356512 3 2 ack 40 ------- 1 4.0 0.0 16 36
- 0.356512 3 2 ack 40 ------- 1 4.0 0.0 16 36
r 0.357312 4 3 ack 40 ------- 1 4.0 0.0 17 37
+ 0.357312 3 2 ack 40 ------- 1 4.0 0.0 17 37
- 0.357312 3 2 ack 40 ------- 1 4.0 0.0 17 37
r 0.358112 4 3 ack 40 ------- 1 4.0 0.0 18 38
+ 0.358112 3 2 ack 40 ------- 1 4.0 0.0 18 38
- 0.358112 3 2 ack 40 ------- 1 4.0 0.0 18 38
r 0.358912 4 3 ack 40 ------- 1 4.0 0.0 19 39
+ 0.358912 3 2 ack 40 ------- 1 4.0 0.0 19 39
- 0.358912 3 2 ack 40 ------- 1 4.0 0.0 19 39
r 0.364944 3 2 ack 40 ------- 1 4.0 0.0 14 34
+ 0.364944 2 0 ack 40 ------- 1 4.0 0.0 14 34
- 0.364944 2 0 ack 40 ------- 1 4.0 0.0 14 34
r 0.365744 3 2 ack 40 ------- 1 4.0 0.0 15 35
+ 0.365744 2 0 ack 40 ------- 1 4.0 0.0 15 35
- 0.365744 2 0 ack 40 ------- 1 4.0 0.0 15 35
r 0.366544 3 2 ack 40 ------- 1 4.0 0.0 16 36
+ 0.366544 2 0 ack 40 ------- 1 4.0 0.0 16 36
- 0.366544 2 0 ack 40 ------- 1 4.0 0.0 16 36
r 0.367344 3 2 ack 40 ------- 1 4.0 0.0 17 37
+ 0.367344 2 0 ack 40 ------- 1 4.0 0.0 17 37
- 0.367344 2 0 ack 40 ------- 1 4.0 0.0 17 37
r 0.368144 3 2 ack 40 ------- 1 4.0 0.0 18 38
+ 0.368144 2 0 ack 40 ------- 1 4.0 0.0 18 38
- 0.368144 2 0 ack 40 ------- 1 4.0 0.0 18 38
r 0.368944 3 2 ack 40 ------- 1 4.0 0.0 19 39
+ 0.368944 2 0 ack 40 ------- 1 4.0 0.0 19 39
- 0.368944 2 0 ack 40 ------- 1 4.0 0.0 19 39
r 0.374976 2 0 ack 40 ------- 1 4.0 0.0 14 34
+ 0.374976 0 2 tcp 1000 ------- 1 0.0 4.0 20 40
- 0.374976 0 2 tcp 1000 ------- 1 0.0 4.0 20 40
+ 0.374976 0 2 tcp 1000 ------- 1 0.0 4.0 21 41
r 0.375776 2 0 ack 40 ------- 1 4.0 0.0 15 35
+ 0.375776 0 2 tcp 1000 ------- 1 0.0 4.0 22 42
+ 0.375776 0 2 tcp 1000 ------- 1 0.0 4.0 23 43
- 0.375776 0 2 tcp 1000 ------- 1 0.0 4.0 21 41
r 0.376576 2 0 ack 40 ------- 1 4.0 0.0 16 36
+ 0.376576 0 2 tcp 1000 ------- 1 0.0 4.0 24 44
+ 0.376576 0 2 tcp 1000 ------- 1 0.0 4.0 25 45
- 0.376576 0 2 tcp 1000 ------- 1 0.0 4.0 22 42
r 0.377376 2 0 ack 40 ------- 1 4.0 0.0 17 37
+ 0.377376 0 2 tcp 1000 ------- 1 0.0 4.0 26 46
+ 0.377376 0 2 tcp 1000 ------- 1 0.0 4.0 27 47
- 0.377376 0 2 tcp 1000 ------- 1 0.0 4.0 23 43
r 0.378176 2 0 ack 40 ------- 1 4.0 0.0 18 38
+ 0.378176 0 2 tcp 1000 ------- 1 0.0 4.0 28 48
+ 0.378176 0 2 tcp 1000 ------- 1 0.0 4.0 29 49
- 0.378176 0 2 tcp 1000 ------- 1 0.0 4.0 24 44
r 0.378976 2 0 ack 40 ------- 1 4.0 0.0 19 39
+ 0.378976 0 2 tcp 1000 ------- 1 0.0 4.0 30 50
+ 0.378976 0 2 tcp 1000 ------- 1 0.0 4.0 31 51
- 0.378976 0 2 tcp 1000 ------- 1 0.0 4.0 25 45
- 0.379776 0 2 tcp 1000 ------- 1 0.0 4.0 26 46
- 0.380576 0 2 tcp 1000 ------- 1 0.0 4.0 27 47
- 0.381376 0 2 tcp 1000 ------- 1 0.0 4.0 28 48
- 0.382176 0 2 tcp 1000 ------- 1 0.0 4.0 29 49
- 0.382976 0 2 tcp 1000 ------- 1 0.0 4.0 30 50
- 0.383776 0 2 tcp 1000 ------- 1 0.0 4.0 31 51
r 0.385776 0 2 tcp 1000 ------- 1 0.0 4.0 20 40
+ 0.385776 2 3 tcp 1000 ------- 1 0.0 4.0 20 40
- 0.385776 2 3 tcp 1000 ------- 1 0.0 4.0 20 40
r 0.386576 0 2 tcp 1000 ------- 1 0.0 4.0 21 41
+ 0.386576 2 3 tcp 1000 ------- 1 0.0 4.0 21 41
- 0.386576 2 3 tcp 1000 ------- 1 0.0 4.0 21 41
r 0.387376 0 2 tcp 1000 ------- 1 0.0 4.0 22 42
+ 0.387376 2 3 tcp 1000 ------- 1 0.0 4.0 22 42
- 0.387376 2 3 tcp 1000 ------- 1 0.0 4.0 22 42
r 0.388176 0 2 tcp 1000 ------- 1 0.0 4.0 23 43
+ 0.388176 2 3 tcp 1000 ------- 1 0.0 4.0 23 43
- 0.388176 2 3 tcp 1000 ------- 1 0.0 4.0 23 43
r 0.388976 0 2 tcp 1000 ------- 1 0.0 4.0 24 44
+ 0.388976 2 3 tcp 1000 ------- 1 0.0 4.0 24 44
- 0.388976 2 3 tcp 1000 ------- 1 0.0 4.0 24 44
r 0.389776 0 2 tcp 1000 ------- 1 0.0 4.0 25 45
+ 0.389776 2 3 tcp 1000 ------- 1 0.0 4.0 25 45
- 0.389776 2 3 tcp 1000 ------- 1 0.0 4.0 25 45
r 0.390576 0 2 tcp 1000 ------- 1 0.0 4.0 26 46
+ 0.390576 2 3 tcp 1000 ------- 1 0.0 4.0 26 46
- 0.390576 2 3 tcp 1000 ------- 1 0.0 4.0 26 46
r 0.391376 0 2 tcp 1000 ------- 1 0.0 4.0 27 47
+ 0.391376 2 3 tcp 1000 ------- 1 0.0 4.0 27 47
- 0.391376 2 3 tcp 1000 ------- 1 0.0 4.0 27 47
r 0.392176 0 2 tcp 1000 ------- 1 0.0 4.0 28 48
+ 0.392176 2 3 tcp 1000 ------- 1 0.0 4.0 28 48
- 0.392176 2 3 tcp 1000 ------- 1 0.0 4.0 28 48
r 0.392976 0 2 tcp 1000 ------- 1 0.0 4.0 29 49
+ 0.392976 2 3 tcp 1000 ------- 1 0.0 4.0 29 49
- 0.392976 2 3 tcp 1000 ------- 1 0.0 4.0 29 49
r 0.393776 0 2 tcp 1000 ------- 1 0.0 4.0 30 50
+ 0.393776 2 3 tcp 1000 ------- 1 0.0 4.0 30 50
- 0.393776 2 3 tcp 1000 ------- 1 0.0 4.0 30 50
r 0.394576 0 2 tcp 1000 ------- 1 0.0 4.0 31 51
+ 0.394576 2 3 tcp 1000 ------- 1 0.0 4.0 31 51
- 0.394576 2 3 tcp 1000 ------- 1 0.0 4.0 31 51
r 0.396576 2 3 tcp 1000 ------- 1 0.0 4.0 20 40
+ 0.396576 3 4 tcp 1000 ------- 1 0.0 4.0 20 40
- 0.396576 3 4 tcp 1000 ------- 1 0.0 4.0 20 40
r 0.397376 2 3 tcp 1000 ------- 1 0.0 4.0 21 41
+ 0.397376 3 4 tcp 1000 ------- 1 0.0 4.0 21 41
- 0.397376 3 4 tcp 1000 ------- 1 0.0 4.0 21 41
r 0.398176 2 3 tcp 1000 ------- 1 0.0 4.0 22 42
+ 0.398176 3 4 tcp 1000 ------- 1 0.0 4.0 22 42
- 0.398176 3 4 tcp 1000 ------- 1 0.0 4.0 22 42
r 0.398976 2 3 tcp 1000 ------- 1 0.0 4.0 23 43
+ 0.398976 3 4 tcp 1000 ------- 1 0.0 4.0 23 43
- 0.398976 3 4 tcp 1000 ------- 1 0.0 4.0 23 43
r 0.399776 2 3 tcp 1000 ------- 1 0.0 4.0 24 44
+ 0.399776 3 4 tcp 1000 ------- 1 0.0 4.0 24 44
- 0.399776 3 4 tcp 1000 ------- 1 0.0 4.0 24 44
r 0.400576 2 3 tcp 1000 ------- 1 0.0 4.0 25 45
+ 0.400576 3 4 tcp 1000 ------- 1 0.0 4.0 25 45
- 0.400576 3 4 tcp 1000 ------- 1 0.0 4.0 25 45
r 0.401376 2 3 tcp 1000 ------- 1 0.0 4.0 26 46
+ 0.401376 3 4 tcp 1000 ------- 1 0.0 4.0 26 46
- 0.401376 3 4 tcp 1000 ------- 1 0.0 4.0 26 46
r 0.402176 2 3 tcp 1000 ------- 1 0.0 4.0 27 47
+ 0.402176 3 4 tcp 1000 ------- 1 0.0 4.0 27 47
- 0.402176 3 4 tcp 1000 ------- 1 0.0 4.0 27 47
r 0.402976 2 3 tcp 1000 ------- 1 0.0 4.0 28 48
+ 0.402976 3 4 tcp 1000 ------- 1 0.0 4.0 28 48
- 0.402976 3 4 tcp 1000 ------- 1 0.0 4.0 28 48
r 0.403776 2 3 tcp 1000 ------- 1 0.0 4.0 29 49
+ 0.403776 3 4 tcp 1000 ------- 1 0.0 4.0 29 49
- 0.403776 3 4 tcp 1000 ------- 1 0.0 4.0 29 49
r 0.404576 2 3 tcp 1000 ------- 1 0.0 4.0 30 50
+ 0.404576 3 4 tcp 1000 ------- 1 0.0 4.0 30 50
- 0.404576 3 4 tcp 1000 ------- 1 0.0 4.0 30 50
r 0.405376 2 3 tcp 1000 ------- 1 0.0 4.0 31 51
+ 0.405376 3 4 tcp 1000 ------- 1 0.0 4.0 31 51
- 0.405376 3 4 tcp 1000 ------- 1 0.0 4.0 31 51
r 0.407376 3 4 tcp 1000 ------- 1 0.0 4.0 20 40
+ 0.407376 4 3 ack 40 ------- 1 4.0 0.0 20 52
- 0.407376 4 3 ack 40 ------- 1 4.0 0.0 20 52
r 0.408176 3 4 tcp 1000 ------- 1 0.0 4.0 21 41
+ 0.408176 4 3 ack 40 ------- 1 4.0 0.0 21 53
- 0.408176 4 3 ack 40 ------- 1 4.0 0.0 21 53
r 0.408976 3 4 tcp 1000 ------- 1 0.0 4.0 22 42
+ 0.408976 4 3 ack 40 ------- 1 4.0 0.0 22 54
- 0.408976 4 3 ack 40 ------- 1 4.0 0.0 22 54
r 0.409776 3 4 tcp 1000 ------- 1 0.0 4.0 23 43
+ 0.409776 4 3 ack 40 ------- 1 4.0 0.0 23 55
- 0.409776 4 3 ack 40 ------- 1 4.0 0.0 23 55
r 0.410576 3 4 tcp 1000 ------- 1 0.0 4.0 24 44
+ 0.410576 4 3 ack 40 ------- 1 4.0 0.0 24 56
- 0.410576 4 3 ack 40 ------- 1 4.0 0.0 24 56
r 0.411376 3 4 tcp 1000 ------- 1 0.0 4.0 25 45
+ 0.411376 4 3 ack 40 ------- 1 4.0 0.0 25 57
- 0.411376 4 3 ack 40 ------- 1 4.0 0.0 25 57
r 0.412176 3 4 tcp 1000 ------- 1 0.0 4.0 26 46
+ 0.412176 4 3 ack 40 ------- 1 4.0 0.0 26 58
- 0.412176 4 3 ack 40 ------- 1 4.0 0.0 26 58
r 0.412976 3 4 tcp 1000 ------- 1 0.0 4.0 27 47
+ 0.412976 4 3 ack 40 ------- 1 4.0 0.0 27 59
- 0.412976 4 3 ack 40 ------- 1 4.0 0.0 27 59
r 0.413776 3 4 tcp 1000 ------- 1 0.0 4.0 28 48
+ 0.413776 4 3 ack 40 ------- 1 4.0 0.0 28 60
- 0.413776 4 3 ack 40 ------- 1 4.0 0.0 28 60
r 0.414576 3 4 tcp 1000 ------- 1 0.0 4.0 29 49
+ 0.414576 4 3 ack 40 ------- 1 4.0 0.0 29 61
- 0.414576 4 3 ack 40 ------- 1 4.0 0.0 29 61
r 0.415376 3 4 tcp 1000 ------- 1 0.0 4.0 30 50
+ 0.415376 4 3 ack 40 ------- 1 4.0 0.0 30 62
- 0.415376 4 3 ack 40 ------- 1 4.0 0.0 30 62
r 0.416176 3 4 tcp 1000 ------- 1 0.0 4.0 31 51
+ 0.416176 4 3 ack 40 ------- 1 4.0 0.0 31 63
- 0.416176 4 3 ack 40 ------- 1 4.0 0.0 31 63
r 0.417408 4 3 ack 40 ------- 1 4.0 0.0 20 52
+ 0.417408 3 2 ack 40 ------- 1 4.0 0.0 20 52
- 0.417408 3 2 ack 40 ------- 1 4.0 0.0 20 52
r 0.418208 4 3 ack 40 ------- 1 4.0 0.0 21 53
+ 0.418208 3 2 ack 40 ------- 1 4.0 0.0 21 53
- 0.418208 3 2 ack 40 ------- 1 4.0 0.0 21 53
r 0.419008 4 3 ack 40 ------- 1 4.0 0.0 22 54
+ 0.419008 3 2 ack 40 ------- 1 4.0 0.0 22 54
- 0.419008 3 2 ack 40 ------- 1 4.0 0.0 22 54
r 0.419808 4 3 ack 40 ------- 1 4.0 0.0 23 55
+ 0.419808 3 2 ack 40 ------- 1 4.0 0.0 23 55
- 0.419808 3 2 ack 40 ------- 1 4.0 0.0 23 55
r 0.420608 4 3 ack 40 ------- 1 4.0 0.0 24 56
+ 0.420608 3 2 ack 40 ------- 1 4.0 0.0 24 56
- 0.420608 3 2 ack 40 ------- 1 4.0 0.0 24 56
r 0.421408 4 3 ack 40 ------- 1 4.0 0.0 25 57
+ 0.421408 3 2 ack 40 ------- 1 4.0 0.0 25 57
- 0.421408 3 2 ack 40 ------- 1 4.0 0.0 25 57
r 0.422208 4 3 ack 40 ------- 1 4.0 0.0 26 58
+ 0.422208 3 2 ack 40 ------- 1 4.0 0.0 26 58
- 0.422208 3 2 ack 40 ------- 1 4.0 0.0 26 58
r 0.423008 4 3 ack 40 ------- 1 4.0 0.0 27 59
+ 0.423008 3 2 ack 40 ------- 1 4.0 0.0 27 59
- 0.423008 3 2 ack 40 ------- 1 4.0 0.0 27 59
r 0.423808 4 3 ack 40 ------- 1 4.0 0.0 28 60
+ 0.423808 3 2 ack 40 ------- 1 4.0 0.0 28 60
- 0.423808 3 2 ack 40 ------- 1 4.0 0.0 28 60
r 0.424608 4 3 ack 40 ------- 1 4.0 0.0 29 61
+ 0.424608 3 2 ack 40 ------- 1 4.0 0.0 29 61
- 0.424608 3 2 ack 40 ------- 1 4.0 0.0 29 61
r 0.425408 4 3 ack 40 ------- 1 4.0 0.0 30 62
+ 0.425408 3 2 ack 40 ------- 1 4.0 0.0 30 62
- 0.425408 3 2 ack 40 ------- 1 4.0 0.0 30 62
r 0.426208 4 3 ack 40 ------- 1 4.0 0.0 31 63
+ 0.426208 3 2 ack 40 ------- 1 4.0 0.0 31 63
- 0.426208 3 2 ack 40 ------- 1 4.0 0.0 31 63
r 0.42744 3 2 ack 40 ------- 1 4.0 0.0 20 52
+ 0.42744 2 0 ack 40 ------- 1 4.0 0.0 20 52
- 0.42744 2 0 ack 40 ------- 1 4.0 0.0 20 52
r 0.42824 3 2 ack 40 ------- 1 4.0 0.0 21 53
+ 0.42824 2 0 ack 40 ------- 1 4.0 0.0 21 53
- 0.42824 2 0 ack 40 ------- 1 4.0 0.0 21 53
r 0.42904 3 2 ack 40 ------- 1 4.0 0.0 22 54
+ 0.42904 2 0 ack 40 ------- 1 4.0 0.0 22 54
- 0.42904 2 0 ack 40 ------- 1 4.0 0.0 22 54
r 0.42984 3 2 ack 40 ------- 1 4.0 0.0 23 55
+ 0.42984 2 0 ack 40 ------- 1 4.0 0.0 23 55
- 0.42984 2 0 ack 40 ------- 1 4.0 0.0 23 55
r 0.43064 3 2 ack 40 ------- 1 4.0 0.0 24 56
+ 0.43064 2 0 ack 40 ------- 1 4.0 0.0 24 56
- 0.43064 2 0 ack 40 ------- 1 4.0 0.0 24 56
r 0.43144 3 2 ack 40 ------- 1 4.0 0.0 25 57
+ 0.43144 2 0 ack 40 ------- 1 4.0 0.0 25 57
- 0.43144 2 0 ack 40 ------- 1 4.0 0.0 25 57
r 0.43224 3 2 ack 40 ------- 1 4.0 0.0 26 58
+ 0.43224 2 0 ack 40 ------- 1 4.0 0.0 26 58
- 0.43224 2 0 ack 40 ------- 1 4.0 0.0 26 58
r 0.43304 3 2 ack 40 ------- 1 4.0 0.0 27 59
+ 0.43304 2 0 ack 40 ------- 1 4.0 0.0 27 59
- 0.43304 2 0 ack 40 ------- 1 4.0 0.0 27 59
r 0.43384 3 2 ack 40 ------- 1 4.0 0.0 28 60
+ 0.43384 2 0 ack 40 ------- 1 4.0 0.0 28 60
- 0.43384 2 0 ack 40 ------- 1 4.0 0.0 28 60
r 0.43464 3 2 ack 40 ------- 1 4.0 0.0 29 61
+ 0.43464 2 0 ack 40 ------- 1 4.0 0.0 29 61
- 0.43464 2 0 ack 40 ------- 1 4.0 0.0 29 61
r 0.43544 3 2 ack 40 ------- 1 4.0 0.0 30 62
+ 0.43544 2 0 ack 40 ------- 1 4.0 0.0 30 62
- 0.43544 2 0 ack 40 ------- 1 4.0 0.0 30 62
r 0.43624 3 2 ack 40 ------- 1 4.0 0.0 31 63
+ 0.43624 2 0 ack 40 ------- 1 4.0 0.0 31 63
- 0.43624 2 0 ack 40 ------- 1 4.0 0.0 31 63
r 0.437472 2 0 ack 40 ------- 1 4.0 0.0 20 52
+ 0.437472 0 2 tcp 1000 ------- 1 0.0 4.0 32 64
- 0.437472 0 2 tcp 1000 ------- 1 0.0 4.0 32 64
r 0.438272 2 0 ack 40 ------- 1 4.0 0.0 21 53
+ 0.438272 0 2 tcp 1000 ------- 1 0.0 4.0 33 65
- 0.438272 0 2 tcp 1000 ------- 1 0.0 4.0 33 65
r 0.439072 2 0 ack 40 ------- 1 4.0 0.0 22 54
+ 0.439072 0 2 tcp 1000 ------- 1 0.0 4.0 34 66
- 0.439072 0 2 tcp 1000 ------- 1 0.0 4.0 34 66
r 0.439872 2 0 ack 40 ------- 1 4.0 0.0 23 55
+ 0.439872 0 2 tcp 1000 ------- 1 0.0 4.0 35 67
- 0.439872 0 2 tcp 1000 ------- 1 0.0 4.0 35 67
r 0.440672 2 0 ack 40 ------- 1 4.0 0.0 24 56
+ 0.440672 0 2 tcp 1000 ------- 1 0.0 4.0 36 68
- 0.440672 0 2 tcp 1000 ------- 1 0.0 4.0 36 68
r 0.441472 2 0 ack 40 ------- 1 4.0 0.0 25 57
+ 0.441472 0 2 tcp 1000 ------- 1 0.0 4.0 37 69
- 0.441472 0 2 tcp 1000 ------- 1 0.0 4.0 37 69
r 0.442272 2 0 ack 40 ------- 1 4.0 0.0 26 58
+ 0.442272 0 2 tcp 1000 ------- 1 0.0 4.0 38 70
- 0.442272 0 2 tcp 1000 ------- 1 0.0 4.0 38 70
r 0.443072 2 0 ack 40 ------- 1 4.0 0.0 27 59
+ 0.443072 0 2 tcp 1000 ------- 1 0.0 4.0 39 71
- 0.443072 0 2 tcp 1000 ------- 1 0.0 4.0 39 71
r 0.443872 2 0 ack 40 ------- 1 4.0 0.0 28 60
+ 0.443872 0 2 tcp 1000 ------- 1 0.0 4.0 40 72
- 0.443872 0 2 tcp 1000 ------- 1 0.0 4.0 40 72
r 0.444672 2 0 ack 40 ------- 1 4.0 0.0 29 61
+ 0.444672 0 2 tcp 1000 ------- 1 0.0 4.0 41 73
- 0.444672 0 2 tcp 1000 ------- 1 0.0 4.0 41 73
r 0.445472 2 0 ack 40 ------- 1 4.0 0.0 30 62
+ 0.445472 0 2 tcp 1000 ------- 1 0.0 4.0 42 74
- 0.445472 0 2 tcp 1000 ------- 1 0.0 4.0 42 74
r 0.446272 2 0 ack 40 ------- 1 4.0 0.0 31 63
+ 0.446272 0 2 tcp 1000 ------- 1 0.0 4.0 43 75
- 0.446272 0 2 tcp 1000 ------- 1 0.0 4.0 43 75
r 0.448272 0 2 tcp 1000 ------- 1 0.0 4.0 32 64
+ 0.448272 2 3 tcp 1000 ------- 1 0.0 4.0 32 64
- 0.448272 2 3 tcp 1000 ------- 1 0.0 4.0 32 64
r 0.449072 0 2 tcp 1000 ------- 1 0.0 4.0 33 65
+ 0.449072 2 3 tcp 1000 ------- 1 0.0 4.0 33 65
- 0.449072 2 3 tcp 1000 ------- 1 0.0 4.0 33 65
r 0.449872 0 2 tcp 1000 ------- 1 0.0 4.0 34 66
+ 0.449872 2 3 tcp 1000 ------- 1 0.0 4.0 34 66
- 0.449872 2 3 tcp 1000 ------- 1 0.0 4.0 34 66
r 0.450672 0 2 tcp 1000 ------- 1 0.0 4.0 35 67
+ 0.450672 2 3 tcp 1000 ------- 1 0.0 4.0 35 67
- 0.450672 2 3 tcp 1000 ------- 1 0.0 4.0 35 67
r 0.451472 0 2 tcp 1000 ------- 1 0.0 4.0 36 68
+ 0.451472 2 3 tcp 1000 ------- 1 0.0 4.0 36 68
- 0.451472 2 3 tcp 1000 ------- 1 0.0 4.0 36 68
r 0.452272 0 2 tcp 1000 ------- 1 0.0 4.0 37 69
+ 0.452272 2 3 tcp 1000 ------- 1 0.0 4.0 37 69
- 0.452272 2 3 tcp 1000 ------- 1 0.0 4.0 37 69
r 0.453072 0 2 tcp 1000 ------- 1 0.0 4.0 38 70
+ 0.453072 2 3 tcp 1000 ------- 1 0.0 4.0 38 70
- 0.453072 2 3 tcp 1000 ------- 1 0.0 4.0 38 70
r 0.453872 0 2 tcp 1000 ------- 1 0.0 4.0 39 71
+ 0.453872 2 3 tcp 1000 ------- 1 0.0 4.0 39 71
- 0.453872 2 3 tcp 1000 ------- 1 0.0 4.0 39 71
r 0.454672 0 2 tcp 1000 ------- 1 0.0 4.0 40 72
+ 0.454672 2 3 tcp 1000 ------- 1 0.0 4.0 40 72
- 0.454672 2 3 tcp 1000 ------- 1 0.0 4.0 40 72
r 0.455472 0 2 tcp 1000 ------- 1 0.0 4.0 41 73
+ 0.455472 2 3 tcp 1000 ------- 1 0.0 4.0 41 73
- 0.455472 2 3 tcp 1000 ------- 1 0.0 4.0 41 73
r 0.456272 0 2 tcp 1000 ------- 1 0.0 4.0 42 74
+ 0.456272 2 3 tcp 1000 ------- 1 0.0 4.0 42 74
- 0.456272 2 3 tcp 1000 ------- 1 0.0 4.0 42 74
r 0.457072 0 2 tcp 1000 ------- 1 0.0 4.0 43 75
+ 0.457072 2 3 tcp 1000 ------- 1 0.0 4.0 43 75
- 0.457072 2 3 tcp 1000 ------- 1 0.0 4.0 43 75
r 0.459072 2 3 tcp 1000 ------- 1 0.0 4.0 32 64
+ 0.459072 3 4 tcp 1000 ------- 1 0.0 4.0 32 64
- 0.459072 3 4 tcp 1000 ------- 1 0.0 4.0 32 64
r 0.459872 2 3 tcp 1000 ------- 1 0.0 4.0 33 65
+ 0.459872 3 4 tcp 1000 ------- 1 0.0 4.0 33 65
- 0.459872 3 4 tcp 1000 ------- 1 0.0 4.0 33 65
r 0.460672 2 3 tcp 1000 ------- 1 0.0 4.0 34 66
+ 0.460672 3 4 tcp 1000 ------- 1 0.0 4.0 34 66
- 0.460672 3 4 tcp 1000 ------- 1 0.0 4.0 34 66